
     Program PWSCF v.6.3MaX starts on 14Feb2020 at 17:46:31 

     This program is part of the open-source Quantum ESPRESSO suite
     for quantum simulation of materials; please cite
         "P. Giannozzi et al., J. Phys.:Condens. Matter 21 395502 (2009);
         "P. Giannozzi et al., J. Phys.:Condens. Matter 29 465901 (2017);
          URL http://www.quantum-espresso.org", 
     in publications or presentations arising from this work. More details at
     http://www.quantum-espresso.org/quote

     Parallel version (MPI), running on     2 processors

     MPI processes distributed on     1 nodes
     R & G space division:  proc/nbgrp/npool/nimage =       2
     Waiting for input...
     Reading input from standard input

     Current dimensions of program PWSCF are:
     Max number of different atomic species (ntypx) = 10
     Max number of k-points (npk) =  40000
     Max angular momentum in pseudopotentials (lmaxx) =  3

     Subspace diagonalization in iterative solution of the eigenvalue problem:
     a serial algorithm will be used

 
     Parallelization info
     --------------------
     sticks:   dense  smooth     PW     G-vecs:    dense   smooth      PW
     Min        3392    3392    878               210674   210674   27756
     Max        3393    3393    879               210675   210675   27759
     Sum        6785    6785   1757               421349   421349   55515
 


     bravais-lattice index     =            0
     lattice parameter (alat)  =      20.6591  a.u.
     unit-cell volume          =    8817.2783 (a.u.)^3
     number of atoms/cell      =           64
     number of atomic types    =            1
     number of electrons       =       256.00
     number of Kohn-Sham states=          154
     kinetic-energy cutoff     =      50.0000  Ry
     charge density cutoff     =     200.0000  Ry
     convergence threshold     =      1.0E-08
     mixing beta               =       0.7000
     number of iterations used =            8  plain     mixing
     Exchange-correlation      = PBE ( 1  4  3  4 0 0)

     celldm(1)=  20.659106  celldm(2)=   0.000000  celldm(3)=   0.000000
     celldm(4)=   0.000000  celldm(5)=   0.000000  celldm(6)=   0.000000

     crystal axes: (cart. coord. in units of alat)
               a(1) = (   1.000000   0.000000   0.000000 )  
               a(2) = (   0.000000   1.000000   0.000000 )  
               a(3) = (   0.000000   0.000000   1.000000 )  

     reciprocal axes: (cart. coord. in units 2 pi/alat)
               b(1) = (  1.000000  0.000000  0.000000 )  
               b(2) = (  0.000000  1.000000  0.000000 )  
               b(3) = (  0.000000  0.000000  1.000000 )  


     PseudoPot. # 1 for Si read from file:
     ~/kedar/softwares/SSSP_precision_pseudos/Si.pbe-n-rrkjus_psl.1.0.0.UPF
     MD5 check sum: Not computed, couldn't open file
     Pseudo is Ultrasoft + core correction, Zval =  4.0
     Generated using "atomic" code by A. Dal Corso v.5.1
     Using radial grid of 1141 points,  6 beta functions with: 
                l(1) =   0
                l(2) =   0
                l(3) =   1
                l(4) =   1
                l(5) =   2
                l(6) =   2
     Q(r) pseudized with 0 coefficients 


     atomic species   valence    mass     pseudopotential
        Si             4.00    28.08550     Si( 1.00)

     No symmetry found



   Cartesian axes

     site n.     atom                  positions (alat units)
         1           Si  tau(   1) = (   0.4404043   0.4375000   0.4375000  )
         2           Si  tau(   2) = (   0.9375000   0.4375000   0.4375000  )
         3           Si  tau(   3) = (   0.4375000   0.9375000   0.4375000  )
         4           Si  tau(   4) = (   0.9375000   0.9375000   0.4375000  )
         5           Si  tau(   5) = (   0.4375000   0.4375000   0.9375000  )
         6           Si  tau(   6) = (   0.9375000   0.4375000   0.9375000  )
         7           Si  tau(   7) = (   0.4375000   0.9375000   0.9375000  )
         8           Si  tau(   8) = (   0.9375000   0.9375000   0.9375000  )
         9           Si  tau(   9) = (   0.4375000   0.1875000   0.1875000  )
        10           Si  tau(  10) = (   0.9375000   0.1875000   0.1875000  )
        11           Si  tau(  11) = (   0.4375000   0.6875000   0.1875000  )
        12           Si  tau(  12) = (   0.9375000   0.6875000   0.1875000  )
        13           Si  tau(  13) = (   0.4375000   0.1875000   0.6875000  )
        14           Si  tau(  14) = (   0.9375000   0.1875000   0.6875000  )
        15           Si  tau(  15) = (   0.4375000   0.6875000   0.6875000  )
        16           Si  tau(  16) = (   0.9375000   0.6875000   0.6875000  )
        17           Si  tau(  17) = (   0.1875000   0.4375000   0.1875000  )
        18           Si  tau(  18) = (   0.6875000   0.4375000   0.1875000  )
        19           Si  tau(  19) = (   0.1875000   0.9375000   0.1875000  )
        20           Si  tau(  20) = (   0.6875000   0.9375000   0.1875000  )
        21           Si  tau(  21) = (   0.1875000   0.4375000   0.6875000  )
        22           Si  tau(  22) = (   0.6875000   0.4375000   0.6875000  )
        23           Si  tau(  23) = (   0.1875000   0.9375000   0.6875000  )
        24           Si  tau(  24) = (   0.6875000   0.9375000   0.6875000  )
        25           Si  tau(  25) = (   0.1875000   0.1875000   0.4375000  )
        26           Si  tau(  26) = (   0.6875000   0.1875000   0.4375000  )
        27           Si  tau(  27) = (   0.1875000   0.6875000   0.4375000  )
        28           Si  tau(  28) = (   0.6875000   0.6875000   0.4375000  )
        29           Si  tau(  29) = (   0.1875000   0.1875000   0.9375000  )
        30           Si  tau(  30) = (   0.6875000   0.1875000   0.9375000  )
        31           Si  tau(  31) = (   0.1875000   0.6875000   0.9375000  )
        32           Si  tau(  32) = (   0.6875000   0.6875000   0.9375000  )
        33           Si  tau(  33) = (   0.0625000   0.0625000   0.0625000  )
        34           Si  tau(  34) = (   0.5625000   0.0625000   0.0625000  )
        35           Si  tau(  35) = (   0.0625000   0.5625000   0.0625000  )
        36           Si  tau(  36) = (   0.5625000   0.5625000   0.0625000  )
        37           Si  tau(  37) = (   0.0625000   0.0625000   0.5625000  )
        38           Si  tau(  38) = (   0.5625000   0.0625000   0.5625000  )
        39           Si  tau(  39) = (   0.0625000   0.5595957   0.5625000  )
        40           Si  tau(  40) = (   0.5625000   0.5625000   0.5625000  )
        41           Si  tau(  41) = (   0.0625000   0.3125000   0.3125000  )
        42           Si  tau(  42) = (   0.5625000   0.3125000   0.3125000  )
        43           Si  tau(  43) = (   0.0625000   0.8125000   0.3125000  )
        44           Si  tau(  44) = (   0.5625000   0.8125000   0.3125000  )
        45           Si  tau(  45) = (   0.0625000   0.3125000   0.8125000  )
        46           Si  tau(  46) = (   0.5625000   0.3125000   0.8125000  )
        47           Si  tau(  47) = (   0.0625000   0.8125000   0.8125000  )
        48           Si  tau(  48) = (   0.5625000   0.8125000   0.8125000  )
        49           Si  tau(  49) = (   0.3125000   0.0625000   0.3125000  )
        50           Si  tau(  50) = (   0.8125000   0.0625000   0.3125000  )
        51           Si  tau(  51) = (   0.3125000   0.5625000   0.3125000  )
        52           Si  tau(  52) = (   0.8125000   0.5625000   0.3125000  )
        53           Si  tau(  53) = (   0.3125000   0.0625000   0.8125000  )
        54           Si  tau(  54) = (   0.8125000   0.0625000   0.8125000  )
        55           Si  tau(  55) = (   0.3125000   0.5625000   0.8125000  )
        56           Si  tau(  56) = (   0.8125000   0.5625000   0.8125000  )
        57           Si  tau(  57) = (   0.3125000   0.3125000   0.0625000  )
        58           Si  tau(  58) = (   0.8125000   0.3125000   0.0625000  )
        59           Si  tau(  59) = (   0.3125000   0.8125000   0.0625000  )
        60           Si  tau(  60) = (   0.8125000   0.8125000   0.0625000  )
        61           Si  tau(  61) = (   0.3125000   0.3125000   0.5625000  )
        62           Si  tau(  62) = (   0.8125000   0.3125000   0.5625000  )
        63           Si  tau(  63) = (   0.3125000   0.8125000   0.5625000  )
        64           Si  tau(  64) = (   0.8125000   0.8125000   0.5625000  )

     number of k points=     4  gaussian smearing, width (Ry)=  0.0100
                       cart. coord. in units 2pi/alat
        k(    1) = (   0.2500000   0.2500000   0.2500000), wk =   0.5000000
        k(    2) = (  -0.2500000  -0.2500000   0.2500000), wk =   0.5000000
        k(    3) = (  -0.2500000   0.2500000  -0.2500000), wk =   0.5000000
        k(    4) = (   0.2500000  -0.2500000  -0.2500000), wk =   0.5000000

     Dense  grid:   421349 G-vectors     FFT dimensions: (  96,  96,  96)

     Estimated max dynamical RAM per process >       2.05 GB

     Estimated total dynamical RAM >       4.11 GB

     Check: negative/imaginary core charge=   -0.000001    0.000000

     Initial potential from superposition of free atoms

     starting charge  255.96421, renormalised to  256.00000
     Starting wfcs are  256 randomized atomic wfcs

     total cpu time spent up to now is       71.0 secs

     Self-consistent Calculation

     iteration #  1     ecut=    50.00 Ry     beta= 0.70
     Davidson diagonalization with overlap
     ethr =  1.00E-02,  avg # of iterations =  3.0

     Threshold (ethr) on eigenvalues was too large:
     Diagonalizing with lowered threshold

     Davidson diagonalization with overlap
     ethr =  6.78E-04,  avg # of iterations =  2.0

     total cpu time spent up to now is      358.1 secs

     total energy              =    -730.80274927 Ry
     Harris-Foulkes estimate   =    -731.20879896 Ry
     estimated scf accuracy    <       1.72034267 Ry

     iteration #  2     ecut=    50.00 Ry     beta= 0.70
     Davidson diagonalization with overlap
     ethr =  6.72E-04,  avg # of iterations =  1.0

     total cpu time spent up to now is      445.7 secs

     total energy              =    -730.86485145 Ry
     Harris-Foulkes estimate   =    -730.87082771 Ry
     estimated scf accuracy    <       0.08014293 Ry

     iteration #  3     ecut=    50.00 Ry     beta= 0.70
     Davidson diagonalization with overlap
     ethr =  3.13E-05,  avg # of iterations = 10.8

     total cpu time spent up to now is      644.9 secs

     total energy              =    -730.87936079 Ry
     Harris-Foulkes estimate   =    -730.88059362 Ry
     estimated scf accuracy    <       0.00273835 Ry

     iteration #  4     ecut=    50.00 Ry     beta= 0.70
     Davidson diagonalization with overlap
     ethr =  1.07E-06,  avg # of iterations =  4.8

     total cpu time spent up to now is      826.2 secs

     total energy              =    -730.87971313 Ry
     Harris-Foulkes estimate   =    -730.88053788 Ry
     estimated scf accuracy    <       0.00241432 Ry

     iteration #  5     ecut=    50.00 Ry     beta= 0.70
     Davidson diagonalization with overlap
     ethr =  9.43E-07,  avg # of iterations =  2.0

     total cpu time spent up to now is      985.5 secs

     total energy              =    -730.87999015 Ry
     Harris-Foulkes estimate   =    -730.88009729 Ry
     estimated scf accuracy    <       0.00030558 Ry

     iteration #  6     ecut=    50.00 Ry     beta= 0.70
     Davidson diagonalization with overlap
     ethr =  1.19E-07,  avg # of iterations =  3.0

     total cpu time spent up to now is     1123.9 secs

     total energy              =    -730.88001244 Ry
     Harris-Foulkes estimate   =    -730.88003965 Ry
     estimated scf accuracy    <       0.00006666 Ry

     iteration #  7     ecut=    50.00 Ry     beta= 0.70
     Davidson diagonalization with overlap
     ethr =  2.60E-08,  avg # of iterations =  2.0

     total cpu time spent up to now is     1259.7 secs

     total energy              =    -730.88002277 Ry
     Harris-Foulkes estimate   =    -730.88002318 Ry
     estimated scf accuracy    <       0.00000269 Ry

     iteration #  8     ecut=    50.00 Ry     beta= 0.70
     Davidson diagonalization with overlap
     ethr =  1.05E-09,  avg # of iterations =  3.0

     total cpu time spent up to now is     1431.1 secs

     total energy              =    -730.88002339 Ry
     Harris-Foulkes estimate   =    -730.88002378 Ry
     estimated scf accuracy    <       0.00000189 Ry

     iteration #  9     ecut=    50.00 Ry     beta= 0.70
     Davidson diagonalization with overlap
     ethr =  7.38E-10,  avg # of iterations =  2.0

     total cpu time spent up to now is     1588.9 secs

     total energy              =    -730.88002329 Ry
     Harris-Foulkes estimate   =    -730.88002357 Ry
     estimated scf accuracy    <       0.00000098 Ry

     iteration # 10     ecut=    50.00 Ry     beta= 0.70
     Davidson diagonalization with overlap
     ethr =  3.81E-10,  avg # of iterations =  1.0

     total cpu time spent up to now is     1739.4 secs

     total energy              =    -730.88002327 Ry
     Harris-Foulkes estimate   =    -730.88002335 Ry
     estimated scf accuracy    <       0.00000020 Ry

     iteration # 11     ecut=    50.00 Ry     beta= 0.70
     Davidson diagonalization with overlap
     ethr =  7.70E-11,  avg # of iterations =  3.0

     total cpu time spent up to now is     1918.3 secs

     total energy              =    -730.88002330 Ry
     Harris-Foulkes estimate   =    -730.88002330 Ry
     estimated scf accuracy    <       0.00000001 Ry

     iteration # 12     ecut=    50.00 Ry     beta= 0.70
     Davidson diagonalization with overlap
     ethr =  5.84E-12,  avg # of iterations =  3.0

     total cpu time spent up to now is     2104.1 secs

     End of self-consistent calculation

          k = 0.2500 0.2500 0.2500 ( 52563 PWs)   bands (ev):

    -5.6274  -5.1021  -5.0994  -5.0968  -4.6029  -4.6000  -4.5977  -4.1660
    -4.0696  -4.0671  -4.0643  -3.6612  -3.6555  -3.6514  -3.6491  -3.6479
    -3.6464  -3.4646  -3.4588  -3.4566  -2.9645  -2.9614  -2.9588  -2.6007
    -2.5927  -2.5908  -2.4337  -2.4305  -2.4262  -2.4239  -2.4225  -2.4209
    -0.8917  -0.8882  -0.8840  -0.8812  -0.8799  -0.8776  -0.7914  -0.7837
    -0.7813  -0.6700  -0.6671  -0.6617  -0.5916  -0.5866  -0.5809   0.1164
     0.1967   0.2029   0.2045   0.2083   0.2108   0.2135   1.0713   1.0771
     1.0815   1.4102   1.4107   1.4151   2.0189   2.0199   2.0216   2.0230
     2.0247   2.0268   2.0814   2.0823   2.0849   2.6279   2.6327   2.6334
     2.7329   2.7343   2.7359   2.7383   2.7409   2.7432   2.7904   2.7917
     2.7959   3.0947   3.0970   3.1009   3.1017   3.1039   3.1045   3.3648
     3.3655   3.3678   3.3787   3.3796   3.3832   3.7216   3.7260   3.7290
     3.7416   3.7489   3.7501   3.8310   3.8342   3.8356   4.0975   4.0996
     4.1047   4.1075   4.1080   4.1092   4.1451   4.1488   4.1502   4.4025
     4.4643   4.4656   4.4690   4.7063   4.7100   4.7116   4.7628   4.7677
     4.7716   4.9281   4.9330   5.2354   5.2405   5.2423   5.7167   5.7225
     6.9288   6.9329   6.9342   7.3670   7.3719   7.3750   7.5982   7.8541
     7.8588   7.8608   7.9813   7.9831   7.9894   8.1426   8.1455   8.1479
     8.1639   8.1648   8.1684   8.3882   8.3913   8.3938   8.3976   8.3983
     8.4004   8.4467

          k =-0.2500-0.2500 0.2500 ( 52563 PWs)   bands (ev):

    -5.6275  -5.1017  -5.0993  -5.0966  -4.6027  -4.6005  -4.5976  -4.1682
    -4.0703  -4.0676  -4.0652  -3.6565  -3.6546  -3.6529  -3.6524  -3.6472
    -3.6420  -3.4622  -3.4599  -3.4538  -2.9680  -2.9656  -2.9624  -2.5977
    -2.5960  -2.5884  -2.4308  -2.4301  -2.4275  -2.4273  -2.4206  -2.4178
    -0.8896  -0.8887  -0.8871  -0.8859  -0.8799  -0.8773  -0.7913  -0.7891
    -0.7813  -0.6743  -0.6689  -0.6659  -0.5834  -0.5773  -0.5725   0.1239
     0.1975   0.1991   0.1996   0.2028   0.2072   0.2123   1.0766   1.0811
     1.0868   1.4088   1.4132   1.4137   2.0181   2.0206   2.0216   2.0224
     2.0245   2.0261   2.0782   2.0813   2.0825   2.6329   2.6346   2.6381
     2.7294   2.7321   2.7337   2.7360   2.7380   2.7404   2.7848   2.7890
     2.7904   3.0968   3.0987   3.0991   3.1006   3.1032   3.1063   3.3601
     3.3643   3.3658   3.3758   3.3792   3.3796   3.7269   3.7293   3.7329
     3.7499   3.7523   3.7569   3.8292   3.8305   3.8341   4.1049   4.1060
     4.1073   4.1092   4.1143   4.1174   4.1428   4.1445   4.1491   4.4109
     4.4575   4.4629   4.4643   4.7032   4.7044   4.7082   4.7723   4.7769
     4.7821   4.9255   4.9306   5.2309   5.2328   5.2378   5.7119   5.7176
     6.9251   6.9284   6.9321   7.3660   7.3691   7.3741   7.5952   7.8515
     7.8538   7.8586   7.9827   7.9890   7.9908   8.1420   8.1436   8.1473
     8.1600   8.1654   8.1673   8.3928   8.3940   8.3970   8.3996   8.4023
     8.4056   8.4419

          k =-0.2500 0.2500-0.2500 ( 52563 PWs)   bands (ev):

    -5.6275  -5.1027  -5.0985  -5.0968  -4.6034  -4.5995  -4.5978  -4.1670
    -4.0708  -4.0665  -4.0648  -3.6608  -3.6536  -3.6529  -3.6503  -3.6481
    -3.6428  -3.4638  -3.4593  -3.4547  -2.9674  -2.9630  -2.9600  -2.5996
    -2.5943  -2.5893  -2.4345  -2.4289  -2.4272  -2.4249  -2.4230  -2.4175
    -0.8914  -0.8877  -0.8872  -0.8825  -0.8812  -0.8757  -0.7916  -0.7863
    -0.7809  -0.6738  -0.6681  -0.6624  -0.5891  -0.5827  -0.5742   0.1202
     0.1981   0.1996   0.2010   0.2063   0.2079   0.2147   1.0728   1.0789
     1.0855   1.4074   1.4120   1.4164   2.0170   2.0207   2.0219   2.0227
     2.0250   2.0271   2.0788   2.0812   2.0851   2.6303   2.6332   2.6362
     2.7305   2.7332   2.7344   2.7379   2.7403   2.7416   2.7856   2.7910
     2.7942   3.0949   3.0983   3.1003   3.1012   3.1032   3.1059   3.3614
     3.3654   3.3669   3.3756   3.3796   3.3833   3.7245   3.7274   3.7304
     3.7462   3.7501   3.7539   3.8298   3.8320   3.8354   4.0997   4.1043
     4.1061   4.1082   4.1091   4.1152   4.1435   4.1461   4.1505   4.4069
     4.4603   4.4644   4.4671   4.7043   4.7068   4.7108   4.7661   4.7718
     4.7788   4.9249   4.9336   5.2325   5.2360   5.2414   5.7122   5.7221
     6.9264   6.9307   6.9337   7.3672   7.3687   7.3757   7.5967   7.8527
     7.8549   7.8612   7.9813   7.9862   7.9906   8.1411   8.1444   8.1486
     8.1611   8.1660   8.1682   8.3903   8.3923   8.3952   8.3976   8.4012
     8.4041   8.4442

          k = 0.2500-0.2500-0.2500 ( 52563 PWs)   bands (ev):

    -5.6275  -5.1029  -5.0997  -5.0954  -4.6039  -4.6006  -4.5963  -4.1672
    -4.0709  -4.0677  -4.0633  -3.6594  -3.6544  -3.6520  -3.6515  -3.6502
    -3.6410  -3.4639  -3.4595  -3.4546  -2.9675  -2.9637  -2.9592  -2.5996
    -2.5942  -2.5894  -2.4335  -2.4286  -2.4266  -2.4259  -2.4251  -2.4162
    -0.8943  -0.8869  -0.8844  -0.8833  -0.8813  -0.8755  -0.7915  -0.7865
    -0.7807  -0.6738  -0.6680  -0.6624  -0.5881  -0.5811  -0.5769   0.1201
     0.1932   0.2008   0.2039   0.2053   0.2102   0.2142   1.0744   1.0794
     1.0834   1.4078   1.4120   1.4160   2.0177   2.0194   2.0223   2.0236
     2.0245   2.0270   2.0784   2.0818   2.0847   2.6303   2.6332   2.6363
     2.7312   2.7326   2.7347   2.7366   2.7400   2.7428   2.7867   2.7897
     2.7947   3.0935   3.0986   3.0997   3.1011   3.1025   3.1084   3.3618
     3.3656   3.3671   3.3750   3.3794   3.3832   3.7237   3.7281   3.7313
     3.7453   3.7502   3.7540   3.8286   3.8326   3.8359   4.0993   4.1042
     4.1067   4.1074   4.1108   4.1147   4.1422   4.1468   4.1510   4.4068
     4.4603   4.4643   4.4671   4.7031   4.7074   4.7112   4.7681   4.7723
     4.7765   4.9248   4.9336   5.2311   5.2368   5.2420   5.7122   5.7221
     6.9264   6.9307   6.9336   7.3651   7.3720   7.3746   7.5967   7.8513
     7.8576   7.8599   7.9813   7.9861   7.9907   8.1419   8.1454   8.1470
     8.1607   8.1659   8.1684   8.3886   8.3935   8.3956   8.3976   8.4008
     8.4046   8.4443

     the Fermi energy is     6.3205 ev

!    total energy              =    -730.88002330 Ry
     Harris-Foulkes estimate   =    -730.88002330 Ry
     estimated scf accuracy    <          3.8E-09 Ry

     The total energy is the sum of the following terms:

     one-electron contribution =     160.47308109 Ry
     hartree contribution      =      35.78723773 Ry
     xc contribution           =    -393.13398978 Ry
     ewald contribution        =    -534.00635234 Ry
     smearing contrib. (-TS)   =      -0.00000000 Ry

     convergence has been achieved in  12 iterations

     Forces acting on atoms (cartesian axes, Ry/au):

     atom    1 type  1   force =    -0.01609236    0.00005847   -0.00005025
     atom    2 type  1   force =    -0.00271140   -0.00395861   -0.00273631
     atom    3 type  1   force =     0.00003068   -0.00002620   -0.00002688
     atom    4 type  1   force =    -0.00004426    0.00000920   -0.00003735
     atom    5 type  1   force =     0.00002724   -0.00025889   -0.00002776
     atom    6 type  1   force =    -0.00005661    0.00005947   -0.00003648
     atom    7 type  1   force =    -0.00050697    0.00001930   -0.00002987
     atom    8 type  1   force =    -0.00000069   -0.00002615   -0.00002602
     atom    9 type  1   force =    -0.00049953    0.00013470    0.00008421
     atom   10 type  1   force =     0.00003071   -0.00001870   -0.00001832
     atom   11 type  1   force =    -0.00049631   -0.00014496   -0.00013839
     atom   12 type  1   force =     0.00005109    0.00006544   -0.00004596
     atom   13 type  1   force =    -0.00050049   -0.00013881    0.00008045
     atom   14 type  1   force =     0.00004138   -0.00000005   -0.00002647
     atom   15 type  1   force =    -0.00049369   -0.00005775   -0.00016529
     atom   16 type  1   force =     0.00251173   -0.00384871   -0.00251840
     atom   17 type  1   force =     0.00028042   -0.00005197    0.00026178
     atom   18 type  1   force =     0.00026568   -0.00037136   -0.00020257
     atom   19 type  1   force =     0.00007143   -0.00003593   -0.00005234
     atom   20 type  1   force =     0.00007422    0.00000954    0.00010712
     atom   21 type  1   force =     0.00296703   -0.00384982    0.00251267
     atom   22 type  1   force =     0.00027500    0.00017394    0.00027934
     atom   23 type  1   force =     0.00008087    0.00002091    0.00011402
     atom   24 type  1   force =     0.00006969   -0.00001791   -0.00004903
     atom   25 type  1   force =     0.00019448    0.00023478   -0.00007262
     atom   26 type  1   force =     0.00021001   -0.00025940   -0.00008643
     atom   27 type  1   force =    -0.00228026   -0.00406361    0.00262094
     atom   28 type  1   force =     0.00020042    0.00028684    0.00016351
     atom   29 type  1   force =     0.00001407   -0.00010550    0.00001676
     atom   30 type  1   force =     0.00001360    0.00009619    0.00002214
     atom   31 type  1   force =    -0.00000637    0.00013355    0.00004577
     atom   32 type  1   force =     0.00001689   -0.00033149    0.00003854
     atom   33 type  1   force =    -0.00001955    0.00003768    0.00003022
     atom   34 type  1   force =     0.00025822    0.00000214    0.00002877
     atom   35 type  1   force =     0.00002580   -0.00002898    0.00002504
     atom   36 type  1   force =    -0.00005748    0.00052537    0.00003870
     atom   37 type  1   force =     0.00002758    0.00000129    0.00002880
     atom   38 type  1   force =    -0.00005944    0.00004382    0.00004800
     atom   39 type  1   force =    -0.00001000    0.01609292    0.00003521
     atom   40 type  1   force =     0.00395810    0.00268114    0.00273543
     atom   41 type  1   force =    -0.00012463   -0.00027387   -0.00026727
     atom   42 type  1   force =     0.00394802   -0.00277997   -0.00266098
     atom   43 type  1   force =    -0.00008401   -0.00025621    0.00019770
     atom   44 type  1   force =    -0.00006703   -0.00008211   -0.00012662
     atom   45 type  1   force =     0.00014213   -0.00026551    0.00020417
     atom   46 type  1   force =    -0.00005007   -0.00009271   -0.00011254
     atom   47 type  1   force =     0.00009000   -0.00026120   -0.00025481
     atom   48 type  1   force =     0.00026792   -0.00007248    0.00004931
     atom   49 type  1   force =    -0.00004660   -0.00003881    0.00004084
     atom   50 type  1   force =     0.00003666   -0.00002860    0.00003834
     atom   51 type  1   force =     0.00395049   -0.00198573    0.00240115
     atom   52 type  1   force =     0.00010417    0.00049442    0.00014935
     atom   53 type  1   force =     0.00024490   -0.00002889    0.00001798
     atom   54 type  1   force =    -0.00002802   -0.00003343    0.00004056
     atom   55 type  1   force =    -0.00017159    0.00047951   -0.00007746
     atom   56 type  1   force =    -0.00008150    0.00049717    0.00013845
     atom   57 type  1   force =    -0.00013228    0.00000696   -0.00002654
     atom   58 type  1   force =     0.00010455   -0.00001414   -0.00003629
     atom   59 type  1   force =     0.00033203   -0.00001538   -0.00001896
     atom   60 type  1   force =    -0.00009780   -0.00001511   -0.00003927
     atom   61 type  1   force =     0.00406872    0.00227217   -0.00239551
     atom   62 type  1   force =    -0.00023895   -0.00020016   -0.00015185
     atom   63 type  1   force =    -0.00028108   -0.00019420    0.00005931
     atom   64 type  1   force =     0.00025304   -0.00020363   -0.00013974

     Total force =     0.027441     Total SCF correction =     0.000114

     Writing output data file pwscf.save/
 
     init_run     :     41.76s CPU     70.12s WALL (       1 calls)
     electrons    :   1132.66s CPU   2033.12s WALL (       1 calls)
     forces       :     20.86s CPU     44.35s WALL (       1 calls)

     Called by init_run:
     wfcinit      :     40.19s CPU     66.93s WALL (       1 calls)
     potinit      :      0.33s CPU      0.65s WALL (       1 calls)
     hinit0       :      0.40s CPU      0.85s WALL (       1 calls)

     Called by electrons:
     c_bands      :    969.00s CPU   1722.17s WALL (      13 calls)
     sum_band     :    148.91s CPU    278.31s WALL (      13 calls)
     v_of_rho     :      3.68s CPU      6.73s WALL (      13 calls)
     newd         :     10.86s CPU     25.37s WALL (      13 calls)
     mix_rho      :      1.10s CPU      2.18s WALL (      13 calls)

     Called by c_bands:
     init_us_2    :     12.40s CPU     22.53s WALL (     112 calls)
     cegterg      :    874.93s CPU   1558.68s WALL (      52 calls)

     Called by sum_band:
     sum_band:bec :      0.07s CPU      0.07s WALL (      52 calls)
     addusdens    :     11.87s CPU     27.46s WALL (      13 calls)

     Called by *egterg:
     h_psi        :    642.12s CPU   1145.22s WALL (     218 calls)
     s_psi        :    124.98s CPU    216.49s WALL (     218 calls)
     g_psi        :      1.08s CPU      1.87s WALL (     162 calls)
     cdiaghg      :     11.10s CPU     19.03s WALL (     210 calls)

     Called by h_psi:
     h_psi:pot    :    640.00s CPU   1138.09s WALL (     218 calls)
     h_psi:calbec :    133.31s CPU    233.94s WALL (     218 calls)
     vloc_psi     :    381.14s CPU    685.45s WALL (     218 calls)
     add_vuspsi   :    125.54s CPU    218.69s WALL (     218 calls)

     General routines
     calbec       :    195.43s CPU    351.31s WALL (     286 calls)
     fft          :      3.56s CPU      6.59s WALL (     156 calls)
     ffts         :      0.17s CPU      0.35s WALL (      13 calls)
     fftw         :    386.98s CPU    727.18s WALL (   50760 calls)
 
     Parallel routines
     fft_scatt_xy :     68.72s CPU     94.75s WALL (   50929 calls)
     fft_scatt_yz :    133.12s CPU    364.95s WALL (   50929 calls)
 
     PWSCF        : 19m56.34s CPU    35m50.31s WALL

 
   This run was terminated on:  18:22:21  14Feb2020            

=------------------------------------------------------------------------------=
   JOB DONE.
=------------------------------------------------------------------------------=
