
     Program PWSCF v.6.3MaX starts on 14Feb2020 at 12: 5:28 

     This program is part of the open-source Quantum ESPRESSO suite
     for quantum simulation of materials; please cite
         "P. Giannozzi et al., J. Phys.:Condens. Matter 21 395502 (2009);
         "P. Giannozzi et al., J. Phys.:Condens. Matter 29 465901 (2017);
          URL http://www.quantum-espresso.org", 
     in publications or presentations arising from this work. More details at
     http://www.quantum-espresso.org/quote

     Parallel version (MPI), running on     2 processors

     MPI processes distributed on     1 nodes
     R & G space division:  proc/nbgrp/npool/nimage =       2
     Waiting for input...
     Reading input from standard input

     Current dimensions of program PWSCF are:
     Max number of different atomic species (ntypx) = 10
     Max number of k-points (npk) =  40000
     Max angular momentum in pseudopotentials (lmaxx) =  3

     Subspace diagonalization in iterative solution of the eigenvalue problem:
     a serial algorithm will be used

 
     Parallelization info
     --------------------
     sticks:   dense  smooth     PW     G-vecs:    dense   smooth      PW
     Min        3392    3392    878               210674   210674   27756
     Max        3393    3393    879               210675   210675   27759
     Sum        6785    6785   1757               421349   421349   55515
 


     bravais-lattice index     =            0
     lattice parameter (alat)  =      20.6591  a.u.
     unit-cell volume          =    8817.2783 (a.u.)^3
     number of atoms/cell      =           64
     number of atomic types    =            1
     number of electrons       =       256.00
     number of Kohn-Sham states=          154
     kinetic-energy cutoff     =      50.0000  Ry
     charge density cutoff     =     200.0000  Ry
     convergence threshold     =      1.0E-08
     mixing beta               =       0.7000
     number of iterations used =            8  plain     mixing
     Exchange-correlation      = PBE ( 1  4  3  4 0 0)

     celldm(1)=  20.659106  celldm(2)=   0.000000  celldm(3)=   0.000000
     celldm(4)=   0.000000  celldm(5)=   0.000000  celldm(6)=   0.000000

     crystal axes: (cart. coord. in units of alat)
               a(1) = (   1.000000   0.000000   0.000000 )  
               a(2) = (   0.000000   1.000000   0.000000 )  
               a(3) = (   0.000000   0.000000   1.000000 )  

     reciprocal axes: (cart. coord. in units 2 pi/alat)
               b(1) = (  1.000000  0.000000  0.000000 )  
               b(2) = (  0.000000  1.000000  0.000000 )  
               b(3) = (  0.000000  0.000000  1.000000 )  


     PseudoPot. # 1 for Si read from file:
     ~/kedar/softwares/SSSP_precision_pseudos/Si.pbe-n-rrkjus_psl.1.0.0.UPF
     MD5 check sum: Not computed, couldn't open file
     Pseudo is Ultrasoft + core correction, Zval =  4.0
     Generated using "atomic" code by A. Dal Corso v.5.1
     Using radial grid of 1141 points,  6 beta functions with: 
                l(1) =   0
                l(2) =   0
                l(3) =   1
                l(4) =   1
                l(5) =   2
                l(6) =   2
     Q(r) pseudized with 0 coefficients 


     atomic species   valence    mass     pseudopotential
        Si             4.00    28.08550     Si( 1.00)

     No symmetry found



   Cartesian axes

     site n.     atom                  positions (alat units)
         1           Si  tau(   1) = (   0.4404043   0.4375000   0.4375000  )
         2           Si  tau(   2) = (   0.9375000   0.4375000   0.4375000  )
         3           Si  tau(   3) = (   0.4375000   0.9375000   0.4375000  )
         4           Si  tau(   4) = (   0.9375000   0.9375000   0.4375000  )
         5           Si  tau(   5) = (   0.4375000   0.4375000   0.9375000  )
         6           Si  tau(   6) = (   0.9375000   0.4375000   0.9375000  )
         7           Si  tau(   7) = (   0.4375000   0.9375000   0.9375000  )
         8           Si  tau(   8) = (   0.9375000   0.9375000   0.9375000  )
         9           Si  tau(   9) = (   0.4375000   0.1875000   0.1875000  )
        10           Si  tau(  10) = (   0.9375000   0.1875000   0.1875000  )
        11           Si  tau(  11) = (   0.4375000   0.6875000   0.1875000  )
        12           Si  tau(  12) = (   0.9375000   0.6875000   0.1875000  )
        13           Si  tau(  13) = (   0.4375000   0.1875000   0.6875000  )
        14           Si  tau(  14) = (   0.9375000   0.1875000   0.6875000  )
        15           Si  tau(  15) = (   0.4375000   0.6875000   0.6875000  )
        16           Si  tau(  16) = (   0.9375000   0.6875000   0.6875000  )
        17           Si  tau(  17) = (   0.1875000   0.4375000   0.1875000  )
        18           Si  tau(  18) = (   0.6875000   0.4375000   0.1875000  )
        19           Si  tau(  19) = (   0.1875000   0.9404043   0.1875000  )
        20           Si  tau(  20) = (   0.6875000   0.9375000   0.1875000  )
        21           Si  tau(  21) = (   0.1875000   0.4375000   0.6875000  )
        22           Si  tau(  22) = (   0.6875000   0.4375000   0.6875000  )
        23           Si  tau(  23) = (   0.1875000   0.9375000   0.6875000  )
        24           Si  tau(  24) = (   0.6875000   0.9375000   0.6875000  )
        25           Si  tau(  25) = (   0.1875000   0.1875000   0.4375000  )
        26           Si  tau(  26) = (   0.6875000   0.1875000   0.4375000  )
        27           Si  tau(  27) = (   0.1875000   0.6875000   0.4375000  )
        28           Si  tau(  28) = (   0.6875000   0.6875000   0.4375000  )
        29           Si  tau(  29) = (   0.1875000   0.1875000   0.9375000  )
        30           Si  tau(  30) = (   0.6875000   0.1875000   0.9375000  )
        31           Si  tau(  31) = (   0.1875000   0.6875000   0.9375000  )
        32           Si  tau(  32) = (   0.6875000   0.6875000   0.9375000  )
        33           Si  tau(  33) = (   0.0625000   0.0625000   0.0625000  )
        34           Si  tau(  34) = (   0.5625000   0.0625000   0.0625000  )
        35           Si  tau(  35) = (   0.0625000   0.5625000   0.0625000  )
        36           Si  tau(  36) = (   0.5625000   0.5625000   0.0625000  )
        37           Si  tau(  37) = (   0.0625000   0.0625000   0.5625000  )
        38           Si  tau(  38) = (   0.5625000   0.0625000   0.5625000  )
        39           Si  tau(  39) = (   0.0625000   0.5625000   0.5625000  )
        40           Si  tau(  40) = (   0.5625000   0.5625000   0.5625000  )
        41           Si  tau(  41) = (   0.0625000   0.3125000   0.3125000  )
        42           Si  tau(  42) = (   0.5625000   0.3125000   0.3125000  )
        43           Si  tau(  43) = (   0.0625000   0.8125000   0.3125000  )
        44           Si  tau(  44) = (   0.5625000   0.8125000   0.3125000  )
        45           Si  tau(  45) = (   0.0625000   0.3125000   0.8125000  )
        46           Si  tau(  46) = (   0.5625000   0.3125000   0.8125000  )
        47           Si  tau(  47) = (   0.0625000   0.8125000   0.8125000  )
        48           Si  tau(  48) = (   0.5625000   0.8125000   0.8125000  )
        49           Si  tau(  49) = (   0.3125000   0.0625000   0.3125000  )
        50           Si  tau(  50) = (   0.8125000   0.0625000   0.3125000  )
        51           Si  tau(  51) = (   0.3125000   0.5625000   0.3125000  )
        52           Si  tau(  52) = (   0.8125000   0.5625000   0.3125000  )
        53           Si  tau(  53) = (   0.3125000   0.0625000   0.8125000  )
        54           Si  tau(  54) = (   0.8125000   0.0625000   0.8125000  )
        55           Si  tau(  55) = (   0.3125000   0.5625000   0.8125000  )
        56           Si  tau(  56) = (   0.8125000   0.5625000   0.8125000  )
        57           Si  tau(  57) = (   0.3125000   0.3125000   0.0625000  )
        58           Si  tau(  58) = (   0.8125000   0.3125000   0.0625000  )
        59           Si  tau(  59) = (   0.3125000   0.8125000   0.0625000  )
        60           Si  tau(  60) = (   0.8125000   0.8125000   0.0625000  )
        61           Si  tau(  61) = (   0.3125000   0.3125000   0.5625000  )
        62           Si  tau(  62) = (   0.8125000   0.3125000   0.5625000  )
        63           Si  tau(  63) = (   0.3125000   0.8125000   0.5625000  )
        64           Si  tau(  64) = (   0.8125000   0.8125000   0.5625000  )

     number of k points=     4  gaussian smearing, width (Ry)=  0.0100
                       cart. coord. in units 2pi/alat
        k(    1) = (   0.2500000   0.2500000   0.2500000), wk =   0.5000000
        k(    2) = (  -0.2500000  -0.2500000   0.2500000), wk =   0.5000000
        k(    3) = (  -0.2500000   0.2500000  -0.2500000), wk =   0.5000000
        k(    4) = (   0.2500000  -0.2500000  -0.2500000), wk =   0.5000000

     Dense  grid:   421349 G-vectors     FFT dimensions: (  96,  96,  96)

     Estimated max dynamical RAM per process >       2.05 GB

     Estimated total dynamical RAM >       4.11 GB

     Check: negative/imaginary core charge=   -0.000001    0.000000

     Initial potential from superposition of free atoms

     starting charge  255.96421, renormalised to  256.00000
     Starting wfcs are  256 randomized atomic wfcs

     total cpu time spent up to now is       69.0 secs

     Self-consistent Calculation

     iteration #  1     ecut=    50.00 Ry     beta= 0.70
     Davidson diagonalization with overlap
     ethr =  1.00E-02,  avg # of iterations =  3.0

     Threshold (ethr) on eigenvalues was too large:
     Diagonalizing with lowered threshold

     Davidson diagonalization with overlap
     ethr =  6.78E-04,  avg # of iterations =  2.0

     total cpu time spent up to now is      340.2 secs

     total energy              =    -730.80279447 Ry
     Harris-Foulkes estimate   =    -731.20888507 Ry
     estimated scf accuracy    <       1.72045131 Ry

     iteration #  2     ecut=    50.00 Ry     beta= 0.70
     Davidson diagonalization with overlap
     ethr =  6.72E-04,  avg # of iterations =  1.0

     total cpu time spent up to now is      452.1 secs

     total energy              =    -730.86488768 Ry
     Harris-Foulkes estimate   =    -730.87085471 Ry
     estimated scf accuracy    <       0.08012414 Ry

     iteration #  3     ecut=    50.00 Ry     beta= 0.70
     Davidson diagonalization with overlap
     ethr =  3.13E-05,  avg # of iterations =  9.8

     total cpu time spent up to now is      647.2 secs

     total energy              =    -730.87936592 Ry
     Harris-Foulkes estimate   =    -730.88058181 Ry
     estimated scf accuracy    <       0.00271858 Ry

     iteration #  4     ecut=    50.00 Ry     beta= 0.70
     Davidson diagonalization with overlap
     ethr =  1.06E-06,  avg # of iterations =  4.0

     total cpu time spent up to now is      781.9 secs

     total energy              =    -730.87977002 Ry
     Harris-Foulkes estimate   =    -730.88048679 Ry
     estimated scf accuracy    <       0.00202996 Ry

     iteration #  5     ecut=    50.00 Ry     beta= 0.70
     Davidson diagonalization with overlap
     ethr =  7.93E-07,  avg # of iterations =  2.0

     total cpu time spent up to now is      888.0 secs

     total energy              =    -730.87999654 Ry
     Harris-Foulkes estimate   =    -730.88008756 Ry
     estimated scf accuracy    <       0.00025193 Ry

     iteration #  6     ecut=    50.00 Ry     beta= 0.70
     Davidson diagonalization with overlap
     ethr =  9.84E-08,  avg # of iterations =  3.0

     total cpu time spent up to now is     1056.4 secs

     total energy              =    -730.88001469 Ry
     Harris-Foulkes estimate   =    -730.88004049 Ry
     estimated scf accuracy    <       0.00006576 Ry

     iteration #  7     ecut=    50.00 Ry     beta= 0.70
     Davidson diagonalization with overlap
     ethr =  2.57E-08,  avg # of iterations =  2.0

     total cpu time spent up to now is     1223.1 secs

     total energy              =    -730.88002457 Ry
     Harris-Foulkes estimate   =    -730.88002493 Ry
     estimated scf accuracy    <       0.00000271 Ry

     iteration #  8     ecut=    50.00 Ry     beta= 0.70
     Davidson diagonalization with overlap
     ethr =  1.06E-09,  avg # of iterations =  3.0

     total cpu time spent up to now is     1420.8 secs

     total energy              =    -730.88002509 Ry
     Harris-Foulkes estimate   =    -730.88002552 Ry
     estimated scf accuracy    <       0.00000180 Ry

     iteration #  9     ecut=    50.00 Ry     beta= 0.70
     Davidson diagonalization with overlap
     ethr =  7.05E-10,  avg # of iterations =  2.0

     total cpu time spent up to now is     1560.9 secs

     total energy              =    -730.88002503 Ry
     Harris-Foulkes estimate   =    -730.88002521 Ry
     estimated scf accuracy    <       0.00000060 Ry

     iteration # 10     ecut=    50.00 Ry     beta= 0.70
     Davidson diagonalization with overlap
     ethr =  2.36E-10,  avg # of iterations =  2.0

     total cpu time spent up to now is     1705.5 secs

     total energy              =    -730.88002502 Ry
     Harris-Foulkes estimate   =    -730.88002508 Ry
     estimated scf accuracy    <       0.00000014 Ry

     iteration # 11     ecut=    50.00 Ry     beta= 0.70
     Davidson diagonalization with overlap
     ethr =  5.47E-11,  avg # of iterations =  3.0

     total cpu time spent up to now is     1867.3 secs

     total energy              =    -730.88002504 Ry
     Harris-Foulkes estimate   =    -730.88002504 Ry
     estimated scf accuracy    <       0.00000001 Ry

     iteration # 12     ecut=    50.00 Ry     beta= 0.70
     Davidson diagonalization with overlap
     ethr =  4.57E-12,  avg # of iterations =  5.2

     total cpu time spent up to now is     2060.4 secs

     End of self-consistent calculation

          k = 0.2500 0.2500 0.2500 ( 52563 PWs)   bands (ev):

    -5.6274  -5.1040  -5.0977  -5.0967  -4.6046  -4.5985  -4.5975  -4.1660
    -4.0713  -4.0655  -4.0641  -3.6651  -3.6512  -3.6508  -3.6499  -3.6480
    -3.6464  -3.4648  -3.4588  -3.4566  -2.9651  -2.9607  -2.9591  -2.6005
    -2.5928  -2.5908  -2.4378  -2.4267  -2.4256  -2.4244  -2.4225  -2.4208
    -0.8924  -0.8871  -0.8835  -0.8816  -0.8804  -0.8776  -0.7915  -0.7837
    -0.7814  -0.6699  -0.6674  -0.6615  -0.5951  -0.5830  -0.5809   0.1164
     0.1968   0.2029   0.2050   0.2073   0.2105   0.2141   1.0706   1.0777
     1.0815   1.4102   1.4108   1.4151   2.0182   2.0195   2.0214   2.0238
     2.0259   2.0263   2.0806   2.0824   2.0853   2.6284   2.6321   2.6334
     2.7324   2.7335   2.7365   2.7391   2.7416   2.7427   2.7889   2.7936
     2.7953   3.0932   3.0982   3.1007   3.1019   3.1034   3.1055   3.3641
     3.3667   3.3674   3.3785   3.3795   3.3832   3.7207   3.7276   3.7289
     3.7424   3.7479   3.7498   3.8311   3.8342   3.8355   4.0951   4.1005
     4.1044   4.1078   4.1087   4.1096   4.1453   4.1485   4.1502   4.4026
     4.4641   4.4669   4.4679   4.7066   4.7098   4.7116   4.7610   4.7693
     4.7716   4.9280   4.9330   5.2357   5.2397   5.2428   5.7167   5.7224
     6.9286   6.9326   6.9346   7.3679   7.3706   7.3754   7.5982   7.8550
     7.8574   7.8614   7.9814   7.9832   7.9892   8.1429   8.1448   8.1478
     8.1630   8.1668   8.1680   8.3871   8.3895   8.3963   8.3977   8.3986
     8.4001   8.4469

          k =-0.2500-0.2500 0.2500 ( 52563 PWs)   bands (ev):

    -5.6275  -5.1020  -5.1008  -5.0949  -4.6030  -4.6020  -4.5958  -4.1682
    -4.0705  -4.0693  -4.0633  -3.6572  -3.6545  -3.6541  -3.6512  -3.6464
    -3.6421  -3.4622  -3.4599  -3.4538  -2.9696  -2.9664  -2.9600  -2.5976
    -2.5960  -2.5884  -2.4324  -2.4294  -2.4282  -2.4259  -2.4202  -2.4181
    -0.8919  -0.8885  -0.8874  -0.8839  -0.8798  -0.8772  -0.7915  -0.7890
    -0.7811  -0.6742  -0.6690  -0.6661  -0.5831  -0.5774  -0.5725   0.1239
     0.1953   0.1970   0.2013   0.2047   0.2073   0.2128   1.0769   1.0818
     1.0859   1.4092   1.4115   1.4150   2.0177   2.0208   2.0218   2.0226
     2.0243   2.0265   2.0782   2.0795   2.0840   2.6331   2.6344   2.6381
     2.7277   2.7315   2.7351   2.7367   2.7389   2.7401   2.7851   2.7888
     2.7901   3.0954   3.0977   3.0990   3.1013   3.1045   3.1067   3.3621
     3.3631   3.3657   3.3752   3.3775   3.3812   3.7267   3.7282   3.7338
     3.7495   3.7520   3.7579   3.8275   3.8321   3.8342   4.1044   4.1065
     4.1073   4.1104   4.1132   4.1174   4.1410   4.1462   4.1491   4.4109
     4.4598   4.4609   4.4641   4.7010   4.7064   4.7082   4.7724   4.7770
     4.7817   4.9255   4.9305   5.2282   5.2353   5.2379   5.7119   5.7175
     6.9258   6.9279   6.9320   7.3654   7.3696   7.3742   7.5952   7.8516
     7.8537   7.8585   7.9826   7.9888   7.9909   8.1418   8.1441   8.1470
     8.1623   8.1635   8.1670   8.3906   8.3951   8.3975   8.4001   8.4022
     8.4056   8.4420

          k =-0.2500 0.2500-0.2500 ( 52563 PWs)   bands (ev):

    -5.6275  -5.1030  -5.0997  -5.0953  -4.6038  -4.6005  -4.5963  -4.1671
    -4.0708  -4.0678  -4.0634  -3.6605  -3.6536  -3.6519  -3.6500  -3.6491
    -3.6433  -3.4636  -3.4593  -3.4550  -2.9666  -2.9640  -2.9600  -2.5981
    -2.5942  -2.5908  -2.4355  -2.4285  -2.4266  -2.4246  -2.4229  -2.4178
    -0.8947  -0.8874  -0.8845  -0.8831  -0.8806  -0.8753  -0.7899  -0.7864
    -0.7829  -0.6732  -0.6680  -0.6626  -0.5883  -0.5812  -0.5767   0.1202
     0.1950   0.2014   0.2038   0.2052   0.2084   0.2136   1.0747   1.0795
     1.0831   1.4080   1.4119   1.4158   2.0176   2.0190   2.0227   2.0233
     2.0245   2.0273   2.0785   2.0818   2.0847   2.6310   2.6331   2.6357
     2.7301   2.7327   2.7361   2.7372   2.7396   2.7422   2.7862   2.7896
     2.7949   3.0941   3.0987   3.0999   3.1009   3.1019   3.1082   3.3616
     3.3655   3.3671   3.3755   3.3792   3.3832   3.7235   3.7280   3.7315
     3.7460   3.7502   3.7534   3.8290   3.8326   3.8358   4.0985   4.1053
     4.1066   4.1079   4.1098   4.1144   4.1428   4.1468   4.1507   4.4068
     4.4603   4.4643   4.4670   4.7032   4.7075   4.7110   4.7683   4.7723
     4.7763   4.9249   4.9336   5.2312   5.2368   5.2417   5.7122   5.7221
     6.9264   6.9307   6.9336   7.3648   7.3717   7.3752   7.5967   7.8511
     7.8574   7.8603   7.9819   7.9861   7.9900   8.1414   8.1455   8.1470
     8.1612   8.1661   8.1685   8.3889   8.3936   8.3970   8.3976   8.3995
     8.4040   8.4445

          k = 0.2500-0.2500-0.2500 ( 52563 PWs)   bands (ev):

    -5.6275  -5.1034  -5.0989  -5.0957  -4.6044  -4.5998  -4.5965  -4.1670
    -4.0716  -4.0666  -4.0638  -3.6614  -3.6543  -3.6512  -3.6495  -3.6491
    -3.6431  -3.4635  -3.4594  -3.4551  -2.9687  -2.9625  -2.9592  -2.5982
    -2.5942  -2.5908  -2.4354  -2.4285  -2.4261  -2.4242  -2.4235  -2.4182
    -0.8930  -0.8873  -0.8840  -0.8831  -0.8810  -0.8774  -0.7898  -0.7863
    -0.7827  -0.6733  -0.6682  -0.6625  -0.5897  -0.5817  -0.5748   0.1202
     0.1955   0.2006   0.2037   0.2071   0.2085   0.2122   1.0729   1.0796
     1.0847   1.4073   1.4122   1.4163   2.0175   2.0204   2.0221   2.0228
     2.0248   2.0268   2.0784   2.0818   2.0847   2.6309   2.6334   2.6356
     2.7302   2.7320   2.7363   2.7384   2.7404   2.7410   2.7866   2.7907
     2.7934   3.0934   3.0977   3.1005   3.1020   3.1029   3.1072   3.3624
     3.3645   3.3673   3.3750   3.3793   3.3837   3.7236   3.7277   3.7317
     3.7462   3.7494   3.7539   3.8289   3.8332   3.8352   4.0990   4.1045
     4.1071   4.1078   4.1100   4.1147   4.1426   4.1476   4.1497   4.4065
     4.4605   4.4638   4.4676   4.7034   4.7078   4.7107   4.7660   4.7721
     4.7785   4.9249   4.9336   5.2315   5.2373   5.2410   5.7122   5.7221
     6.9270   6.9296   6.9341   7.3671   7.3713   7.3733   7.5967   7.8530
     7.8562   7.8596   7.9820   7.9861   7.9899   8.1425   8.1444   8.1477
     8.1620   8.1638   8.1691   8.3883   8.3934   8.3962   8.3989   8.4010
     8.4028   8.4443

     the Fermi energy is     6.3207 ev

!    total energy              =    -730.88002504 Ry
     Harris-Foulkes estimate   =    -730.88002504 Ry
     estimated scf accuracy    <          2.4E-09 Ry

     The total energy is the sum of the following terms:

     one-electron contribution =     160.47284038 Ry
     hartree contribution      =      35.78736576 Ry
     xc contribution           =    -393.13399746 Ry
     ewald contribution        =    -534.00623372 Ry
     smearing contrib. (-TS)   =      -0.00000000 Ry

     convergence has been achieved in  12 iterations

     Forces acting on atoms (cartesian axes, Ry/au):

     atom    1 type  1   force =    -0.01606346    0.00000274   -0.00000898
     atom    2 type  1   force =     0.00001387    0.00000338    0.00000919
     atom    3 type  1   force =    -0.00005958   -0.00053116   -0.00011375
     atom    4 type  1   force =    -0.00011539   -0.00052644    0.00011079
     atom    5 type  1   force =     0.00006431    0.00000209   -0.00000966
     atom    6 type  1   force =     0.00000327    0.00000175    0.00000952
     atom    7 type  1   force =    -0.00036668   -0.00052559   -0.00010983
     atom    8 type  1   force =     0.00013973   -0.00053019    0.00011399
     atom    9 type  1   force =    -0.00030117    0.00035209    0.00022808
     atom   10 type  1   force =    -0.00022789    0.00024790   -0.00010515
     atom   11 type  1   force =    -0.00074964    0.00034059    0.00000127
     atom   12 type  1   force =     0.00022645    0.00023940   -0.00011893
     atom   13 type  1   force =    -0.00060189   -0.00006568    0.00011991
     atom   14 type  1   force =     0.00007846    0.00003485    0.00000035
     atom   15 type  1   force =    -0.00045397   -0.00007042   -0.00010561
     atom   16 type  1   force =    -0.00007473    0.00003444   -0.00001902
     atom   17 type  1   force =     0.00023042   -0.00008654    0.00022401
     atom   18 type  1   force =     0.00023771   -0.00012070   -0.00022930
     atom   19 type  1   force =     0.00004390   -0.01606374   -0.00007650
     atom   20 type  1   force =     0.00004365    0.00004563    0.00007526
     atom   21 type  1   force =     0.00023152    0.00010444   -0.00022413
     atom   22 type  1   force =     0.00023772    0.00014096    0.00022859
     atom   23 type  1   force =     0.00004404    0.00006358    0.00007608
     atom   24 type  1   force =     0.00004384   -0.00046718   -0.00007575
     atom   25 type  1   force =     0.00034509    0.00046161    0.00011969
     atom   26 type  1   force =     0.00024692   -0.00018467   -0.00019059
     atom   27 type  1   force =     0.00034116    0.00000676   -0.00011326
     atom   28 type  1   force =     0.00024663    0.00027258    0.00019134
     atom   29 type  1   force =    -0.00007003    0.00016145   -0.00023858
     atom   30 type  1   force =     0.00003448    0.00011964    0.00006665
     atom   31 type  1   force =    -0.00006609    0.00030712    0.00023225
     atom   32 type  1   force =     0.00003504   -0.00003196   -0.00006708
     atom   33 type  1   force =    -0.00275564    0.00398997   -0.00270601
     atom   34 type  1   force =     0.00022037   -0.00003055   -0.00002157
     atom   35 type  1   force =    -0.00001058    0.00001575   -0.00001244
     atom   36 type  1   force =    -0.00008343    0.00007577    0.00001133
     atom   37 type  1   force =    -0.00002188   -0.00003444   -0.00001141
     atom   38 type  1   force =    -0.00008741    0.00029583    0.00002138
     atom   39 type  1   force =    -0.00003704    0.00006465    0.00001209
     atom   40 type  1   force =     0.00392776    0.00271635    0.00270464
     atom   41 type  1   force =     0.00002646   -0.00004706   -0.00007491
     atom   42 type  1   force =     0.00398547   -0.00270624   -0.00276494
     atom   43 type  1   force =     0.00253758    0.00381355   -0.00253616
     atom   44 type  1   force =    -0.00002267   -0.00009600   -0.00009934
     atom   45 type  1   force =     0.00005640    0.00000224   -0.00005105
     atom   46 type  1   force =    -0.00002909   -0.00006893   -0.00006842
     atom   47 type  1   force =     0.00003121   -0.00008846   -0.00006810
     atom   48 type  1   force =     0.00028571    0.00022651   -0.00005655
     atom   49 type  1   force =     0.00267901    0.00392167    0.00278641
     atom   50 type  1   force =     0.00006649   -0.00008480    0.00007841
     atom   51 type  1   force =     0.00387742   -0.00252032    0.00254810
     atom   52 type  1   force =     0.00001501   -0.00001052    0.00006457
     atom   53 type  1   force =     0.00030474   -0.00008635    0.00006608
     atom   54 type  1   force =     0.00000820    0.00022746    0.00005938
     atom   55 type  1   force =    -0.00003071   -0.00002372    0.00006097
     atom   56 type  1   force =     0.00005992   -0.00004902    0.00005709
     atom   57 type  1   force =    -0.00009422    0.00004045    0.00000003
     atom   58 type  1   force =     0.00000245    0.00005839    0.00000319
     atom   59 type  1   force =    -0.00225484    0.00386794    0.00248269
     atom   60 type  1   force =    -0.00005707   -0.00002668    0.00001945
     atom   61 type  1   force =     0.00381010    0.00253963   -0.00248335
     atom   62 type  1   force =    -0.00004105    0.00001849   -0.00000675
     atom   63 type  1   force =    -0.00010770   -0.00002103   -0.00001397
     atom   64 type  1   force =     0.00000133    0.00028075   -0.00000172

     Total force =     0.027431     Total SCF correction =     0.000093

     Writing output data file pwscf.save/
 
     init_run     :     41.92s CPU     68.27s WALL (       1 calls)
     electrons    :   1095.62s CPU   1991.44s WALL (       1 calls)
     forces       :     20.05s CPU     41.70s WALL (       1 calls)

     Called by init_run:
     wfcinit      :     40.40s CPU     65.16s WALL (       1 calls)
     potinit      :      0.33s CPU      0.59s WALL (       1 calls)
     hinit0       :      0.38s CPU      0.75s WALL (       1 calls)

     Called by electrons:
     c_bands      :    933.67s CPU   1684.56s WALL (      13 calls)
     sum_band     :    148.32s CPU    276.19s WALL (      13 calls)
     v_of_rho     :      3.37s CPU      6.35s WALL (      13 calls)
     newd         :     10.09s CPU     24.04s WALL (      13 calls)
     mix_rho      :      1.03s CPU      1.97s WALL (      13 calls)

     Called by c_bands:
     init_us_2    :     12.02s CPU     21.31s WALL (     112 calls)
     cegterg      :    840.57s CPU   1520.89s WALL (      52 calls)

     Called by sum_band:
     sum_band:bec :      0.06s CPU      0.07s WALL (      52 calls)
     addusdens    :     11.15s CPU     26.80s WALL (      13 calls)

     Called by *egterg:
     h_psi        :    613.83s CPU   1109.95s WALL (     224 calls)
     s_psi        :    126.01s CPU    222.61s WALL (     224 calls)
     g_psi        :      1.15s CPU      1.92s WALL (     168 calls)
     cdiaghg      :     11.06s CPU     19.05s WALL (     216 calls)

     Called by h_psi:
     h_psi:pot    :    611.86s CPU   1102.50s WALL (     224 calls)
     h_psi:calbec :    127.41s CPU    224.42s WALL (     224 calls)
     vloc_psi     :    358.98s CPU    657.13s WALL (     224 calls)
     add_vuspsi   :    125.46s CPU    220.94s WALL (     224 calls)

     General routines
     calbec       :    188.33s CPU    336.46s WALL (     292 calls)
     fft          :      3.33s CPU      6.37s WALL (     156 calls)
     ffts         :      0.18s CPU      0.34s WALL (      13 calls)
     fftw         :    363.42s CPU    697.83s WALL (   50606 calls)
 
     Parallel routines
     fft_scatt_xy :     69.37s CPU     94.50s WALL (   50775 calls)
     fft_scatt_yz :    111.10s CPU    341.71s WALL (   50775 calls)
 
     PWSCF        : 19m18.44s CPU    35m 3.48s WALL

 
   This run was terminated on:  12:40:31  14Feb2020            

=------------------------------------------------------------------------------=
   JOB DONE.
=------------------------------------------------------------------------------=
