
     Program PWSCF v.6.3MaX starts on 14Feb2020 at 20:37:48 

     This program is part of the open-source Quantum ESPRESSO suite
     for quantum simulation of materials; please cite
         "P. Giannozzi et al., J. Phys.:Condens. Matter 21 395502 (2009);
         "P. Giannozzi et al., J. Phys.:Condens. Matter 29 465901 (2017);
          URL http://www.quantum-espresso.org", 
     in publications or presentations arising from this work. More details at
     http://www.quantum-espresso.org/quote

     Parallel version (MPI), running on     2 processors

     MPI processes distributed on     1 nodes
     R & G space division:  proc/nbgrp/npool/nimage =       2
     Waiting for input...
     Reading input from standard input

     Current dimensions of program PWSCF are:
     Max number of different atomic species (ntypx) = 10
     Max number of k-points (npk) =  40000
     Max angular momentum in pseudopotentials (lmaxx) =  3

     Subspace diagonalization in iterative solution of the eigenvalue problem:
     a serial algorithm will be used

 
     Parallelization info
     --------------------
     sticks:   dense  smooth     PW     G-vecs:    dense   smooth      PW
     Min        3392    3392    878               210674   210674   27756
     Max        3393    3393    879               210675   210675   27759
     Sum        6785    6785   1757               421349   421349   55515
 


     bravais-lattice index     =            0
     lattice parameter (alat)  =      20.6591  a.u.
     unit-cell volume          =    8817.2783 (a.u.)^3
     number of atoms/cell      =           64
     number of atomic types    =            1
     number of electrons       =       256.00
     number of Kohn-Sham states=          154
     kinetic-energy cutoff     =      50.0000  Ry
     charge density cutoff     =     200.0000  Ry
     convergence threshold     =      1.0E-08
     mixing beta               =       0.7000
     number of iterations used =            8  plain     mixing
     Exchange-correlation      = PBE ( 1  4  3  4 0 0)

     celldm(1)=  20.659106  celldm(2)=   0.000000  celldm(3)=   0.000000
     celldm(4)=   0.000000  celldm(5)=   0.000000  celldm(6)=   0.000000

     crystal axes: (cart. coord. in units of alat)
               a(1) = (   1.000000   0.000000   0.000000 )  
               a(2) = (   0.000000   1.000000   0.000000 )  
               a(3) = (   0.000000   0.000000   1.000000 )  

     reciprocal axes: (cart. coord. in units 2 pi/alat)
               b(1) = (  1.000000  0.000000  0.000000 )  
               b(2) = (  0.000000  1.000000  0.000000 )  
               b(3) = (  0.000000  0.000000  1.000000 )  


     PseudoPot. # 1 for Si read from file:
     ~/kedar/softwares/SSSP_precision_pseudos/Si.pbe-n-rrkjus_psl.1.0.0.UPF
     MD5 check sum: Not computed, couldn't open file
     Pseudo is Ultrasoft + core correction, Zval =  4.0
     Generated using "atomic" code by A. Dal Corso v.5.1
     Using radial grid of 1141 points,  6 beta functions with: 
                l(1) =   0
                l(2) =   0
                l(3) =   1
                l(4) =   1
                l(5) =   2
                l(6) =   2
     Q(r) pseudized with 0 coefficients 


     atomic species   valence    mass     pseudopotential
        Si             4.00    28.08550     Si( 1.00)

     No symmetry found



   Cartesian axes

     site n.     atom                  positions (alat units)
         1           Si  tau(   1) = (   0.4404043   0.4375000   0.4375000  )
         2           Si  tau(   2) = (   0.9375000   0.4375000   0.4375000  )
         3           Si  tau(   3) = (   0.4375000   0.9375000   0.4375000  )
         4           Si  tau(   4) = (   0.9375000   0.9375000   0.4375000  )
         5           Si  tau(   5) = (   0.4375000   0.4375000   0.9375000  )
         6           Si  tau(   6) = (   0.9375000   0.4375000   0.9375000  )
         7           Si  tau(   7) = (   0.4375000   0.9375000   0.9375000  )
         8           Si  tau(   8) = (   0.9375000   0.9375000   0.9375000  )
         9           Si  tau(   9) = (   0.4375000   0.1875000   0.1875000  )
        10           Si  tau(  10) = (   0.9375000   0.1875000   0.1875000  )
        11           Si  tau(  11) = (   0.4375000   0.6875000   0.1875000  )
        12           Si  tau(  12) = (   0.9375000   0.6875000   0.1875000  )
        13           Si  tau(  13) = (   0.4375000   0.1875000   0.6875000  )
        14           Si  tau(  14) = (   0.9375000   0.1875000   0.6875000  )
        15           Si  tau(  15) = (   0.4375000   0.6875000   0.6875000  )
        16           Si  tau(  16) = (   0.9375000   0.6875000   0.6875000  )
        17           Si  tau(  17) = (   0.1875000   0.4375000   0.1875000  )
        18           Si  tau(  18) = (   0.6875000   0.4375000   0.1875000  )
        19           Si  tau(  19) = (   0.1875000   0.9375000   0.1875000  )
        20           Si  tau(  20) = (   0.6875000   0.9375000   0.1875000  )
        21           Si  tau(  21) = (   0.1875000   0.4375000   0.6875000  )
        22           Si  tau(  22) = (   0.6875000   0.4375000   0.6875000  )
        23           Si  tau(  23) = (   0.1875000   0.9375000   0.6875000  )
        24           Si  tau(  24) = (   0.6875000   0.9375000   0.6875000  )
        25           Si  tau(  25) = (   0.1875000   0.1875000   0.4375000  )
        26           Si  tau(  26) = (   0.6875000   0.1875000   0.4375000  )
        27           Si  tau(  27) = (   0.1875000   0.6875000   0.4375000  )
        28           Si  tau(  28) = (   0.6875000   0.6875000   0.4375000  )
        29           Si  tau(  29) = (   0.1875000   0.1875000   0.9375000  )
        30           Si  tau(  30) = (   0.6875000   0.1875000   0.9375000  )
        31           Si  tau(  31) = (   0.1875000   0.6875000   0.9375000  )
        32           Si  tau(  32) = (   0.6875000   0.6875000   0.9375000  )
        33           Si  tau(  33) = (   0.0625000   0.0625000   0.0625000  )
        34           Si  tau(  34) = (   0.5625000   0.0625000   0.0625000  )
        35           Si  tau(  35) = (   0.0625000   0.5625000   0.0625000  )
        36           Si  tau(  36) = (   0.5625000   0.5625000   0.0625000  )
        37           Si  tau(  37) = (   0.0625000   0.0625000   0.5625000  )
        38           Si  tau(  38) = (   0.5625000   0.0625000   0.5625000  )
        39           Si  tau(  39) = (   0.0625000   0.5625000   0.5625000  )
        40           Si  tau(  40) = (   0.5625000   0.5625000   0.5625000  )
        41           Si  tau(  41) = (   0.0625000   0.3125000   0.3125000  )
        42           Si  tau(  42) = (   0.5625000   0.3125000   0.3125000  )
        43           Si  tau(  43) = (   0.0625000   0.8125000   0.3125000  )
        44           Si  tau(  44) = (   0.5625000   0.8125000   0.3125000  )
        45           Si  tau(  45) = (   0.0625000   0.3125000   0.8125000  )
        46           Si  tau(  46) = (   0.5625000   0.3125000   0.8125000  )
        47           Si  tau(  47) = (   0.0625000   0.8125000   0.8125000  )
        48           Si  tau(  48) = (   0.5625000   0.8125000   0.8125000  )
        49           Si  tau(  49) = (   0.3125000   0.0625000   0.3125000  )
        50           Si  tau(  50) = (   0.8125000   0.0625000   0.3154043  )
        51           Si  tau(  51) = (   0.3125000   0.5625000   0.3125000  )
        52           Si  tau(  52) = (   0.8125000   0.5625000   0.3125000  )
        53           Si  tau(  53) = (   0.3125000   0.0625000   0.8125000  )
        54           Si  tau(  54) = (   0.8125000   0.0625000   0.8125000  )
        55           Si  tau(  55) = (   0.3125000   0.5625000   0.8125000  )
        56           Si  tau(  56) = (   0.8125000   0.5625000   0.8125000  )
        57           Si  tau(  57) = (   0.3125000   0.3125000   0.0625000  )
        58           Si  tau(  58) = (   0.8125000   0.3125000   0.0625000  )
        59           Si  tau(  59) = (   0.3125000   0.8125000   0.0625000  )
        60           Si  tau(  60) = (   0.8125000   0.8125000   0.0625000  )
        61           Si  tau(  61) = (   0.3125000   0.3125000   0.5625000  )
        62           Si  tau(  62) = (   0.8125000   0.3125000   0.5625000  )
        63           Si  tau(  63) = (   0.3125000   0.8125000   0.5625000  )
        64           Si  tau(  64) = (   0.8125000   0.8125000   0.5625000  )

     number of k points=     4  gaussian smearing, width (Ry)=  0.0100
                       cart. coord. in units 2pi/alat
        k(    1) = (   0.2500000   0.2500000   0.2500000), wk =   0.5000000
        k(    2) = (  -0.2500000  -0.2500000   0.2500000), wk =   0.5000000
        k(    3) = (  -0.2500000   0.2500000  -0.2500000), wk =   0.5000000
        k(    4) = (   0.2500000  -0.2500000  -0.2500000), wk =   0.5000000

     Dense  grid:   421349 G-vectors     FFT dimensions: (  96,  96,  96)

     Estimated max dynamical RAM per process >       2.05 GB

     Estimated total dynamical RAM >       4.11 GB

     Check: negative/imaginary core charge=   -0.000001    0.000000

     Initial potential from superposition of free atoms

     starting charge  255.96421, renormalised to  256.00000
     Starting wfcs are  256 randomized atomic wfcs

     total cpu time spent up to now is       90.0 secs

     Self-consistent Calculation

     iteration #  1     ecut=    50.00 Ry     beta= 0.70
     Davidson diagonalization with overlap
     ethr =  1.00E-02,  avg # of iterations =  3.0

     Threshold (ethr) on eigenvalues was too large:
     Diagonalizing with lowered threshold

     Davidson diagonalization with overlap
     ethr =  6.78E-04,  avg # of iterations =  2.0

     total cpu time spent up to now is      444.8 secs

     total energy              =    -730.80288742 Ry
     Harris-Foulkes estimate   =    -731.20902955 Ry
     estimated scf accuracy    <       1.72058793 Ry

     iteration #  2     ecut=    50.00 Ry     beta= 0.70
     Davidson diagonalization with overlap
     ethr =  6.72E-04,  avg # of iterations =  1.0

     total cpu time spent up to now is      586.5 secs

     total energy              =    -730.86492693 Ry
     Harris-Foulkes estimate   =    -730.87089559 Ry
     estimated scf accuracy    <       0.08012491 Ry

     iteration #  3     ecut=    50.00 Ry     beta= 0.70
     Davidson diagonalization with overlap
     ethr =  3.13E-05,  avg # of iterations =  9.8

     total cpu time spent up to now is      832.4 secs

     total energy              =    -730.87933512 Ry
     Harris-Foulkes estimate   =    -730.88058971 Ry
     estimated scf accuracy    <       0.00275414 Ry

     iteration #  4     ecut=    50.00 Ry     beta= 0.70
     Davidson diagonalization with overlap
     ethr =  1.08E-06,  avg # of iterations =  4.2

     total cpu time spent up to now is      946.2 secs

     total energy              =    -730.87964344 Ry
     Harris-Foulkes estimate   =    -730.88061766 Ry
     estimated scf accuracy    <       0.00280425 Ry

     iteration #  5     ecut=    50.00 Ry     beta= 0.70
     Davidson diagonalization with overlap
     ethr =  1.08E-06,  avg # of iterations =  5.5

     total cpu time spent up to now is     1016.3 secs

     total energy              =    -730.87999318 Ry
     Harris-Foulkes estimate   =    -730.88009711 Ry
     estimated scf accuracy    <       0.00030136 Ry

     iteration #  6     ecut=    50.00 Ry     beta= 0.70
     Davidson diagonalization with overlap
     ethr =  1.18E-07,  avg # of iterations =  3.0

     total cpu time spent up to now is     1080.3 secs

     total energy              =    -730.88001536 Ry
     Harris-Foulkes estimate   =    -730.88004645 Ry
     estimated scf accuracy    <       0.00007872 Ry

     iteration #  7     ecut=    50.00 Ry     beta= 0.70
     Davidson diagonalization with overlap
     ethr =  3.07E-08,  avg # of iterations =  2.0

     total cpu time spent up to now is     1142.6 secs

     total energy              =    -730.88002673 Ry
     Harris-Foulkes estimate   =    -730.88002709 Ry
     estimated scf accuracy    <       0.00000266 Ry

     iteration #  8     ecut=    50.00 Ry     beta= 0.70
     Davidson diagonalization with overlap
     ethr =  1.04E-09,  avg # of iterations =  3.2

     total cpu time spent up to now is     1219.4 secs

     total energy              =    -730.88002744 Ry
     Harris-Foulkes estimate   =    -730.88002782 Ry
     estimated scf accuracy    <       0.00000178 Ry

     iteration #  9     ecut=    50.00 Ry     beta= 0.70
     Davidson diagonalization with overlap
     ethr =  6.94E-10,  avg # of iterations =  2.0

     total cpu time spent up to now is     1274.7 secs

     total energy              =    -730.88002734 Ry
     Harris-Foulkes estimate   =    -730.88002756 Ry
     estimated scf accuracy    <       0.00000074 Ry

     iteration # 10     ecut=    50.00 Ry     beta= 0.70
     Davidson diagonalization with overlap
     ethr =  2.89E-10,  avg # of iterations =  1.0

     total cpu time spent up to now is     1327.2 secs

     total energy              =    -730.88002733 Ry
     Harris-Foulkes estimate   =    -730.88002739 Ry
     estimated scf accuracy    <       0.00000016 Ry

     iteration # 11     ecut=    50.00 Ry     beta= 0.70
     Davidson diagonalization with overlap
     ethr =  6.25E-11,  avg # of iterations =  3.0

     total cpu time spent up to now is     1389.9 secs

     total energy              =    -730.88002735 Ry
     Harris-Foulkes estimate   =    -730.88002735 Ry
     estimated scf accuracy    <       0.00000001 Ry

     iteration # 12     ecut=    50.00 Ry     beta= 0.70
     Davidson diagonalization with overlap
     ethr =  4.48E-12,  avg # of iterations =  3.0

     total cpu time spent up to now is     1489.3 secs

     End of self-consistent calculation

          k = 0.2500 0.2500 0.2500 ( 52563 PWs)   bands (ev):

    -5.6275  -5.1031  -5.1000  -5.0949  -4.6039  -4.6009  -4.5960  -4.1671
    -4.0710  -4.0683  -4.0628  -3.6601  -3.6535  -3.6533  -3.6501  -3.6485
    -3.6429  -3.4636  -3.4594  -3.4551  -2.9676  -2.9646  -2.9582  -2.5982
    -2.5942  -2.5907  -2.4348  -2.4286  -2.4277  -2.4246  -2.4228  -2.4176
    -0.8941  -0.8880  -0.8856  -0.8824  -0.8800  -0.8755  -0.7898  -0.7863
    -0.7830  -0.6731  -0.6682  -0.6627  -0.5896  -0.5820  -0.5745   0.1201
     0.1964   0.1993   0.2025   0.2060   0.2098   0.2135   1.0735   1.0787
     1.0849   1.4076   1.4117   1.4165   2.0174   2.0199   2.0216   2.0230
     2.0242   2.0281   2.0785   2.0815   2.0854   2.6310   2.6332   2.6356
     2.7297   2.7322   2.7358   2.7377   2.7407   2.7416   2.7864   2.7894
     2.7952   3.0950   3.0976   3.0996   3.1003   3.1030   3.1082   3.3628
     3.3648   3.3662   3.3750   3.3798   3.3835   3.7239   3.7282   3.7310
     3.7454   3.7497   3.7544   3.8291   3.8322   3.8361   4.0991   4.1048
     4.1060   4.1078   4.1095   4.1155   4.1429   4.1463   4.1510   4.4068
     4.4617   4.4640   4.4661   4.7033   4.7069   4.7114   4.7666   4.7719
     4.7784   4.9249   4.9336   5.2313   5.2364   5.2422   5.7122   5.7220
     6.9270   6.9301   6.9337   7.3649   7.3715   7.3752   7.5967   7.8511
     7.8575   7.8603   7.9820   7.9861   7.9900   8.1405   8.1454   8.1478
     8.1632   8.1650   8.1674   8.3912   8.3929   8.3945   8.3976   8.4002
     8.4041   8.4442

          k =-0.2500-0.2500 0.2500 ( 52563 PWs)   bands (ev):

    -5.6275  -5.1019  -5.1009  -5.0949  -4.6029  -4.6020  -4.5959  -4.1682
    -4.0703  -4.0693  -4.0634  -3.6557  -3.6550  -3.6539  -3.6522  -3.6449
    -3.6439  -3.4622  -3.4593  -3.4543  -2.9684  -2.9670  -2.9606  -2.5975
    -2.5942  -2.5904  -2.4309  -2.4297  -2.4281  -2.4271  -2.4211  -2.4173
    -0.8916  -0.8892  -0.8870  -0.8852  -0.8800  -0.8758  -0.7908  -0.7866
    -0.7841  -0.6737  -0.6683  -0.6672  -0.5830  -0.5781  -0.5719   0.1239
     0.1957   0.1991   0.2003   0.2033   0.2093   0.2107   1.0768   1.0825
     1.0853   1.4091   1.4122   1.4144   2.0184   2.0198   2.0218   2.0229
     2.0245   2.0264   2.0782   2.0795   2.0839   2.6333   2.6356   2.6368
     2.7290   2.7311   2.7346   2.7373   2.7385   2.7396   2.7852   2.7875
     2.7912   3.0954   3.0978   3.0991   3.1009   3.1050   3.1065   3.3619
     3.3625   3.3654   3.3756   3.3784   3.3808   3.7268   3.7282   3.7336
     3.7494   3.7533   3.7570   3.8277   3.8318   3.8343   4.1046   4.1060
     4.1079   4.1099   4.1122   4.1185   4.1411   4.1458   4.1492   4.4109
     4.4599   4.4608   4.4641   4.7014   4.7060   4.7084   4.7724   4.7777
     4.7811   4.9254   4.9306   5.2286   5.2349   5.2380   5.7120   5.7175
     6.9258   6.9278   6.9320   7.3645   7.3707   7.3740   7.5952   7.8506
     7.8549   7.8584   7.9835   7.9882   7.9907   8.1412   8.1444   8.1472
     8.1621   8.1639   8.1669   8.3924   8.3945   8.3981   8.3993   8.4029
     8.4042   8.4419

          k =-0.2500 0.2500-0.2500 ( 52563 PWs)   bands (ev):

    -5.6275  -5.1036  -5.0993  -5.0952  -4.6044  -4.6001  -4.5962  -4.1671
    -4.0717  -4.0672  -4.0632  -3.6611  -3.6542  -3.6513  -3.6493  -3.6487
    -3.6439  -3.4634  -3.4594  -3.4551  -2.9687  -2.9627  -2.9590  -2.5982
    -2.5943  -2.5907  -2.4358  -2.4285  -2.4259  -2.4243  -2.4236  -2.4178
    -0.8945  -0.8877  -0.8840  -0.8825  -0.8810  -0.8757  -0.7899  -0.7864
    -0.7829  -0.6732  -0.6680  -0.6627  -0.5898  -0.5811  -0.5750   0.1202
     0.1952   0.2001   0.2044   0.2072   0.2084   0.2123   1.0731   1.0798
     1.0843   1.4073   1.4122   1.4162   2.0176   2.0197   2.0213   2.0227
     2.0254   2.0276   2.0783   2.0820   2.0850   2.6315   2.6332   2.6350
     2.7301   2.7328   2.7348   2.7375   2.7400   2.7425   2.7862   2.7901
     2.7949   3.0941   3.0976   3.1009   3.1016   3.1030   3.1066   3.3623
     3.3650   3.3671   3.3749   3.3791   3.3838   3.7233   3.7280   3.7315
     3.7472   3.7502   3.7525   3.8286   3.8334   3.8353   4.0984   4.1049
     4.1067   4.1079   4.1099   4.1150   4.1423   4.1479   4.1499   4.4065
     4.4608   4.4638   4.4674   4.7029   4.7079   4.7110   4.7663   4.7723
     4.7781   4.9249   4.9336   5.2309   5.2375   5.2415   5.7122   5.7221
     6.9264   6.9303   6.9340   7.3647   7.3722   7.3746   7.5967   7.8512
     7.8575   7.8602   7.9819   7.9861   7.9899   8.1406   8.1451   8.1482
     8.1613   8.1650   8.1691   8.3887   8.3933   8.3972   8.3983   8.4001
     8.4031   8.4443

          k = 0.2500-0.2500-0.2500 ( 52563 PWs)   bands (ev):

    -5.6274  -5.1024  -5.0996  -5.0963  -4.6029  -4.6004  -4.5972  -4.1659
    -4.0700  -4.0674  -4.0636  -3.6594  -3.6567  -3.6510  -3.6506  -3.6482
    -3.6456  -3.4641  -3.4593  -3.4566  -2.9642  -2.9631  -2.9574  -2.5987
    -2.5945  -2.5911  -2.4345  -2.4302  -2.4259  -2.4254  -2.4220  -2.4198
    -0.8925  -0.8871  -0.8837  -0.8834  -0.8789  -0.8772  -0.7884  -0.7856
    -0.7822  -0.6691  -0.6678  -0.6619  -0.5944  -0.5838  -0.5809   0.1164
     0.2004   0.2032   0.2047   0.2055   0.2099   0.2129   1.0697   1.0786
     1.0816   1.4088   1.4120   1.4152   2.0175   2.0205   2.0217   2.0235
     2.0254   2.0265   2.0806   2.0824   2.0854   2.6298   2.6309   2.6333
     2.7322   2.7338   2.7378   2.7387   2.7410   2.7424   2.7889   2.7929
     2.7960   3.0961   3.0981   3.1004   3.1012   3.1016   3.1053   3.3644
     3.3664   3.3673   3.3780   3.3800   3.3835   3.7226   3.7261   3.7289
     3.7426   3.7469   3.7501   3.8314   3.8337   3.8357   4.0956   4.1012
     4.1053   4.1074   4.1078   4.1088   4.1456   4.1481   4.1505   4.4027
     4.4639   4.4669   4.4680   4.7068   4.7093   4.7119   4.7606   4.7698
     4.7716   4.9281   4.9330   5.2359   5.2392   5.2430   5.7167   5.7224
     6.9286   6.9327   6.9346   7.3673   7.3709   7.3758   7.5982   7.8543
     7.8578   7.8617   7.9815   7.9838   7.9884   8.1425   8.1439   8.1492
     8.1628   8.1665   8.1682   8.3890   8.3909   8.3949   8.3973   8.3981
     8.3995   8.4466

     the Fermi energy is     6.3204 ev

!    total energy              =    -730.88002735 Ry
     Harris-Foulkes estimate   =    -730.88002735 Ry
     estimated scf accuracy    <          3.5E-09 Ry

     The total energy is the sum of the following terms:

     one-electron contribution =     160.47278552 Ry
     hartree contribution      =      35.78738984 Ry
     xc contribution           =    -393.13399617 Ry
     ewald contribution        =    -534.00620654 Ry
     smearing contrib. (-TS)   =      -0.00000000 Ry

     convergence has been achieved in  12 iterations

     Forces acting on atoms (cartesian axes, Ry/au):

     atom    1 type  1   force =    -0.01602284   -0.00002845    0.00025668
     atom    2 type  1   force =     0.00007325   -0.00003756   -0.00005834
     atom    3 type  1   force =     0.00009293   -0.00004875   -0.00005786
     atom    4 type  1   force =     0.00272861   -0.00273645    0.00395834
     atom    5 type  1   force =     0.00008673   -0.00003069   -0.00001935
     atom    6 type  1   force =     0.00001957   -0.00002530    0.00002706
     atom    7 type  1   force =    -0.00045009   -0.00002783    0.00002639
     atom    8 type  1   force =     0.00006240   -0.00003672   -0.00001088
     atom    9 type  1   force =    -0.00056655    0.00006593    0.00005873
     atom   10 type  1   force =    -0.00250930   -0.00250097    0.00384816
     atom   11 type  1   force =    -0.00055172    0.00008084    0.00014451
     atom   12 type  1   force =    -0.00004965   -0.00002666   -0.00006673
     atom   13 type  1   force =    -0.00055347   -0.00013965    0.00013840
     atom   14 type  1   force =    -0.00003286   -0.00004677    0.00000019
     atom   15 type  1   force =    -0.00055932   -0.00014458   -0.00013404
     atom   16 type  1   force =    -0.00002895   -0.00003525    0.00001933
     atom   17 type  1   force =     0.00025949   -0.00008309    0.00047969
     atom   18 type  1   force =     0.00028673   -0.00007628   -0.00028788
     atom   19 type  1   force =     0.00007972    0.00004129   -0.00013366
     atom   20 type  1   force =     0.00255476    0.00249958    0.00391444
     atom   21 type  1   force =     0.00026079    0.00013840   -0.00024358
     atom   22 type  1   force =     0.00026658    0.00014222    0.00025825
     atom   23 type  1   force =     0.00007041    0.00004024    0.00010541
     atom   24 type  1   force =     0.00008168    0.00004538   -0.00008524
     atom   25 type  1   force =     0.00019330    0.00027324   -0.00016831
     atom   26 type  1   force =    -0.00249875    0.00250796    0.00384300
     atom   27 type  1   force =     0.00020237   -0.00019507    0.00036860
     atom   28 type  1   force =     0.00018835    0.00026708    0.00005505
     atom   29 type  1   force =     0.00001789   -0.00004987    0.00001552
     atom   30 type  1   force =     0.00000754    0.00011289   -0.00001896
     atom   31 type  1   force =     0.00001329    0.00010761   -0.00000990
     atom   32 type  1   force =     0.00001685   -0.00005046    0.00003676
     atom   33 type  1   force =    -0.00024471   -0.00007964    0.00026088
     atom   34 type  1   force =     0.00048424    0.00013803    0.00025815
     atom   35 type  1   force =     0.00010272    0.00001811    0.00006854
     atom   36 type  1   force =    -0.00013453    0.00005891    0.00008234
     atom   37 type  1   force =     0.00025673   -0.00008906    0.00026561
     atom   38 type  1   force =    -0.00028872    0.00015223    0.00028655
     atom   39 type  1   force =    -0.00008727    0.00002759    0.00008073
     atom   40 type  1   force =     0.00403627    0.00274580    0.00278011
     atom   41 type  1   force =     0.00009979    0.00007248   -0.00056278
     atom   42 type  1   force =     0.00407126   -0.00285235   -0.00326604
     atom   43 type  1   force =    -0.00008899    0.00009004   -0.00055697
     atom   44 type  1   force =    -0.00016718   -0.00014939   -0.00057531
     atom   45 type  1   force =     0.00003626   -0.00001890   -0.00002309
     atom   46 type  1   force =    -0.00004977   -0.00005781   -0.00003557
     atom   47 type  1   force =    -0.00003009   -0.00002064   -0.00002921
     atom   48 type  1   force =     0.00024976   -0.00003800   -0.00002524
     atom   49 type  1   force =    -0.00005724   -0.00003564    0.00010673
     atom   50 type  1   force =     0.00002880   -0.00002655   -0.01602473
     atom   51 type  1   force =     0.00383932   -0.00251219    0.00203330
     atom   52 type  1   force =    -0.00001102   -0.00003584    0.00009176
     atom   53 type  1   force =     0.00025381   -0.00002734    0.00001998
     atom   54 type  1   force =    -0.00001912   -0.00003142    0.00005555
     atom   55 type  1   force =    -0.00005614   -0.00005077    0.00006345
     atom   56 type  1   force =     0.00002819   -0.00002859    0.00002050
     atom   57 type  1   force =    -0.00006543    0.00012801    0.00000787
     atom   58 type  1   force =    -0.00008146   -0.00019525    0.00020356
     atom   59 type  1   force =     0.00026437   -0.00004955    0.00001580
     atom   60 type  1   force =     0.00008966    0.00025432    0.00020081
     atom   61 type  1   force =     0.00382901    0.00243380   -0.00246580
     atom   62 type  1   force =    -0.00012430    0.00026681    0.00020052
     atom   63 type  1   force =    -0.00004743    0.00011343   -0.00000625
     atom   64 type  1   force =     0.00014346   -0.00020292    0.00020851

     Total force =     0.027410     Total SCF correction =     0.000109

     Writing output data file pwscf.save/
 
     init_run     :     41.78s CPU     89.19s WALL (       1 calls)
     electrons    :    972.03s CPU   1399.33s WALL (       1 calls)
     forces       :     20.08s CPU     33.48s WALL (       1 calls)

     Called by init_run:
     wfcinit      :     40.27s CPU     85.34s WALL (       1 calls)
     potinit      :      0.31s CPU      0.70s WALL (       1 calls)
     hinit0       :      0.43s CPU      0.91s WALL (       1 calls)

     Called by electrons:
     c_bands      :    834.33s CPU   1195.77s WALL (      13 calls)
     sum_band     :    125.20s CPU    182.04s WALL (      13 calls)
     v_of_rho     :      3.19s CPU      4.66s WALL (      13 calls)
     newd         :      9.32s CPU     18.19s WALL (      13 calls)
     mix_rho      :      0.83s CPU      1.06s WALL (      13 calls)

     Called by c_bands:
     init_us_2    :     10.58s CPU     15.13s WALL (     112 calls)
     cegterg      :    748.44s CPU   1077.40s WALL (      52 calls)

     Called by sum_band:
     sum_band:bec :      0.06s CPU      0.06s WALL (      52 calls)
     addusdens    :     10.31s CPU     18.74s WALL (      13 calls)

     Called by *egterg:
     h_psi        :    538.67s CPU    795.74s WALL (     227 calls)
     s_psi        :    120.54s CPU    170.69s WALL (     227 calls)
     g_psi        :      1.01s CPU      1.53s WALL (     171 calls)
     cdiaghg      :     10.88s CPU     16.30s WALL (     219 calls)

     Called by h_psi:
     h_psi:pot    :    536.82s CPU    790.13s WALL (     227 calls)
     h_psi:calbec :    120.80s CPU    171.64s WALL (     227 calls)
     vloc_psi     :    295.50s CPU    448.24s WALL (     227 calls)
     add_vuspsi   :    120.52s CPU    170.25s WALL (     227 calls)

     General routines
     calbec       :    178.38s CPU    253.75s WALL (     295 calls)
     fft          :      2.48s CPU      3.98s WALL (     156 calls)
     ffts         :      0.17s CPU      0.24s WALL (      13 calls)
     fftw         :    291.19s CPU    458.97s WALL (   51022 calls)
 
     Parallel routines
     fft_scatt_xy :     62.26s CPU     74.66s WALL (   51191 calls)
     fft_scatt_yz :     67.05s CPU    182.32s WALL (   51191 calls)
 
     PWSCF        : 17m14.68s CPU    25m24.17s WALL

 
   This run was terminated on:  21: 3:12  14Feb2020            

=------------------------------------------------------------------------------=
   JOB DONE.
=------------------------------------------------------------------------------=
