
     Program PWSCF v.6.3MaX starts on 14Feb2020 at 12:58: 7 

     This program is part of the open-source Quantum ESPRESSO suite
     for quantum simulation of materials; please cite
         "P. Giannozzi et al., J. Phys.:Condens. Matter 21 395502 (2009);
         "P. Giannozzi et al., J. Phys.:Condens. Matter 29 465901 (2017);
          URL http://www.quantum-espresso.org", 
     in publications or presentations arising from this work. More details at
     http://www.quantum-espresso.org/quote

     Parallel version (MPI), running on     2 processors

     MPI processes distributed on     1 nodes
     R & G space division:  proc/nbgrp/npool/nimage =       2
     Waiting for input...
     Reading input from standard input

     Current dimensions of program PWSCF are:
     Max number of different atomic species (ntypx) = 10
     Max number of k-points (npk) =  40000
     Max angular momentum in pseudopotentials (lmaxx) =  3

     Subspace diagonalization in iterative solution of the eigenvalue problem:
     a serial algorithm will be used

 
     Parallelization info
     --------------------
     sticks:   dense  smooth     PW     G-vecs:    dense   smooth      PW
     Min        3392    3392    878               210674   210674   27756
     Max        3393    3393    879               210675   210675   27759
     Sum        6785    6785   1757               421349   421349   55515
 


     bravais-lattice index     =            0
     lattice parameter (alat)  =      20.6591  a.u.
     unit-cell volume          =    8817.2783 (a.u.)^3
     number of atoms/cell      =           64
     number of atomic types    =            1
     number of electrons       =       256.00
     number of Kohn-Sham states=          154
     kinetic-energy cutoff     =      50.0000  Ry
     charge density cutoff     =     200.0000  Ry
     convergence threshold     =      1.0E-08
     mixing beta               =       0.7000
     number of iterations used =            8  plain     mixing
     Exchange-correlation      = PBE ( 1  4  3  4 0 0)

     celldm(1)=  20.659106  celldm(2)=   0.000000  celldm(3)=   0.000000
     celldm(4)=   0.000000  celldm(5)=   0.000000  celldm(6)=   0.000000

     crystal axes: (cart. coord. in units of alat)
               a(1) = (   1.000000   0.000000   0.000000 )  
               a(2) = (   0.000000   1.000000   0.000000 )  
               a(3) = (   0.000000   0.000000   1.000000 )  

     reciprocal axes: (cart. coord. in units 2 pi/alat)
               b(1) = (  1.000000  0.000000  0.000000 )  
               b(2) = (  0.000000  1.000000  0.000000 )  
               b(3) = (  0.000000  0.000000  1.000000 )  


     PseudoPot. # 1 for Si read from file:
     ~/kedar/softwares/SSSP_precision_pseudos/Si.pbe-n-rrkjus_psl.1.0.0.UPF
     MD5 check sum: Not computed, couldn't open file
     Pseudo is Ultrasoft + core correction, Zval =  4.0
     Generated using "atomic" code by A. Dal Corso v.5.1
     Using radial grid of 1141 points,  6 beta functions with: 
                l(1) =   0
                l(2) =   0
                l(3) =   1
                l(4) =   1
                l(5) =   2
                l(6) =   2
     Q(r) pseudized with 0 coefficients 


     atomic species   valence    mass     pseudopotential
        Si             4.00    28.08550     Si( 1.00)

     No symmetry found



   Cartesian axes

     site n.     atom                  positions (alat units)
         1           Si  tau(   1) = (   0.4404043   0.4375000   0.4375000  )
         2           Si  tau(   2) = (   0.9375000   0.4375000   0.4375000  )
         3           Si  tau(   3) = (   0.4375000   0.9375000   0.4375000  )
         4           Si  tau(   4) = (   0.9375000   0.9375000   0.4375000  )
         5           Si  tau(   5) = (   0.4375000   0.4375000   0.9375000  )
         6           Si  tau(   6) = (   0.9375000   0.4375000   0.9375000  )
         7           Si  tau(   7) = (   0.4375000   0.9375000   0.9375000  )
         8           Si  tau(   8) = (   0.9375000   0.9375000   0.9375000  )
         9           Si  tau(   9) = (   0.4375000   0.1875000   0.1875000  )
        10           Si  tau(  10) = (   0.9375000   0.1875000   0.1875000  )
        11           Si  tau(  11) = (   0.4375000   0.6875000   0.1875000  )
        12           Si  tau(  12) = (   0.9375000   0.6875000   0.1875000  )
        13           Si  tau(  13) = (   0.4375000   0.1875000   0.6875000  )
        14           Si  tau(  14) = (   0.9375000   0.1875000   0.6875000  )
        15           Si  tau(  15) = (   0.4375000   0.6875000   0.6875000  )
        16           Si  tau(  16) = (   0.9375000   0.6875000   0.6875000  )
        17           Si  tau(  17) = (   0.1875000   0.4375000   0.1875000  )
        18           Si  tau(  18) = (   0.6875000   0.4375000   0.1875000  )
        19           Si  tau(  19) = (   0.1875000   0.9375000   0.1875000  )
        20           Si  tau(  20) = (   0.6845957   0.9375000   0.1875000  )
        21           Si  tau(  21) = (   0.1875000   0.4375000   0.6875000  )
        22           Si  tau(  22) = (   0.6875000   0.4375000   0.6875000  )
        23           Si  tau(  23) = (   0.1875000   0.9375000   0.6875000  )
        24           Si  tau(  24) = (   0.6875000   0.9375000   0.6875000  )
        25           Si  tau(  25) = (   0.1875000   0.1875000   0.4375000  )
        26           Si  tau(  26) = (   0.6875000   0.1875000   0.4375000  )
        27           Si  tau(  27) = (   0.1875000   0.6875000   0.4375000  )
        28           Si  tau(  28) = (   0.6875000   0.6875000   0.4375000  )
        29           Si  tau(  29) = (   0.1875000   0.1875000   0.9375000  )
        30           Si  tau(  30) = (   0.6875000   0.1875000   0.9375000  )
        31           Si  tau(  31) = (   0.1875000   0.6875000   0.9375000  )
        32           Si  tau(  32) = (   0.6875000   0.6875000   0.9375000  )
        33           Si  tau(  33) = (   0.0625000   0.0625000   0.0625000  )
        34           Si  tau(  34) = (   0.5625000   0.0625000   0.0625000  )
        35           Si  tau(  35) = (   0.0625000   0.5625000   0.0625000  )
        36           Si  tau(  36) = (   0.5625000   0.5625000   0.0625000  )
        37           Si  tau(  37) = (   0.0625000   0.0625000   0.5625000  )
        38           Si  tau(  38) = (   0.5625000   0.0625000   0.5625000  )
        39           Si  tau(  39) = (   0.0625000   0.5625000   0.5625000  )
        40           Si  tau(  40) = (   0.5625000   0.5625000   0.5625000  )
        41           Si  tau(  41) = (   0.0625000   0.3125000   0.3125000  )
        42           Si  tau(  42) = (   0.5625000   0.3125000   0.3125000  )
        43           Si  tau(  43) = (   0.0625000   0.8125000   0.3125000  )
        44           Si  tau(  44) = (   0.5625000   0.8125000   0.3125000  )
        45           Si  tau(  45) = (   0.0625000   0.3125000   0.8125000  )
        46           Si  tau(  46) = (   0.5625000   0.3125000   0.8125000  )
        47           Si  tau(  47) = (   0.0625000   0.8125000   0.8125000  )
        48           Si  tau(  48) = (   0.5625000   0.8125000   0.8125000  )
        49           Si  tau(  49) = (   0.3125000   0.0625000   0.3125000  )
        50           Si  tau(  50) = (   0.8125000   0.0625000   0.3125000  )
        51           Si  tau(  51) = (   0.3125000   0.5625000   0.3125000  )
        52           Si  tau(  52) = (   0.8125000   0.5625000   0.3125000  )
        53           Si  tau(  53) = (   0.3125000   0.0625000   0.8125000  )
        54           Si  tau(  54) = (   0.8125000   0.0625000   0.8125000  )
        55           Si  tau(  55) = (   0.3125000   0.5625000   0.8125000  )
        56           Si  tau(  56) = (   0.8125000   0.5625000   0.8125000  )
        57           Si  tau(  57) = (   0.3125000   0.3125000   0.0625000  )
        58           Si  tau(  58) = (   0.8125000   0.3125000   0.0625000  )
        59           Si  tau(  59) = (   0.3125000   0.8125000   0.0625000  )
        60           Si  tau(  60) = (   0.8125000   0.8125000   0.0625000  )
        61           Si  tau(  61) = (   0.3125000   0.3125000   0.5625000  )
        62           Si  tau(  62) = (   0.8125000   0.3125000   0.5625000  )
        63           Si  tau(  63) = (   0.3125000   0.8125000   0.5625000  )
        64           Si  tau(  64) = (   0.8125000   0.8125000   0.5625000  )

     number of k points=     4  gaussian smearing, width (Ry)=  0.0100
                       cart. coord. in units 2pi/alat
        k(    1) = (   0.2500000   0.2500000   0.2500000), wk =   0.5000000
        k(    2) = (  -0.2500000  -0.2500000   0.2500000), wk =   0.5000000
        k(    3) = (  -0.2500000   0.2500000  -0.2500000), wk =   0.5000000
        k(    4) = (   0.2500000  -0.2500000  -0.2500000), wk =   0.5000000

     Dense  grid:   421349 G-vectors     FFT dimensions: (  96,  96,  96)

     Estimated max dynamical RAM per process >       2.05 GB

     Estimated total dynamical RAM >       4.11 GB

     Check: negative/imaginary core charge=   -0.000001    0.000000

     Initial potential from superposition of free atoms

     starting charge  255.96421, renormalised to  256.00000
     Starting wfcs are  256 randomized atomic wfcs

     total cpu time spent up to now is       41.4 secs

     Self-consistent Calculation

     iteration #  1     ecut=    50.00 Ry     beta= 0.70
     Davidson diagonalization with overlap
     ethr =  1.00E-02,  avg # of iterations =  3.0

     Threshold (ethr) on eigenvalues was too large:
     Diagonalizing with lowered threshold

     Davidson diagonalization with overlap
     ethr =  6.78E-04,  avg # of iterations =  2.0

     total cpu time spent up to now is      211.1 secs

     total energy              =    -730.80299716 Ry
     Harris-Foulkes estimate   =    -731.20920006 Ry
     estimated scf accuracy    <       1.72075624 Ry

     iteration #  2     ecut=    50.00 Ry     beta= 0.70
     Davidson diagonalization with overlap
     ethr =  6.72E-04,  avg # of iterations =  1.0

     total cpu time spent up to now is      277.9 secs

     total energy              =    -730.86497366 Ry
     Harris-Foulkes estimate   =    -730.87093639 Ry
     estimated scf accuracy    <       0.08011552 Ry

     iteration #  3     ecut=    50.00 Ry     beta= 0.70
     Davidson diagonalization with overlap
     ethr =  3.13E-05,  avg # of iterations = 10.0

     total cpu time spent up to now is      399.4 secs

     total energy              =    -730.87932700 Ry
     Harris-Foulkes estimate   =    -730.88057812 Ry
     estimated scf accuracy    <       0.00274559 Ry

     iteration #  4     ecut=    50.00 Ry     beta= 0.70
     Davidson diagonalization with overlap
     ethr =  1.07E-06,  avg # of iterations =  5.0

     total cpu time spent up to now is      508.1 secs

     total energy              =    -730.87961292 Ry
     Harris-Foulkes estimate   =    -730.88063047 Ry
     estimated scf accuracy    <       0.00295939 Ry

     iteration #  5     ecut=    50.00 Ry     beta= 0.70
     Davidson diagonalization with overlap
     ethr =  1.07E-06,  avg # of iterations =  2.2

     total cpu time spent up to now is      588.7 secs

     total energy              =    -730.87998671 Ry
     Harris-Foulkes estimate   =    -730.88009578 Ry
     estimated scf accuracy    <       0.00032015 Ry

     iteration #  6     ecut=    50.00 Ry     beta= 0.70
     Davidson diagonalization with overlap
     ethr =  1.25E-07,  avg # of iterations =  3.0

     total cpu time spent up to now is      670.1 secs

     total energy              =    -730.88001163 Ry
     Harris-Foulkes estimate   =    -730.88004176 Ry
     estimated scf accuracy    <       0.00007447 Ry

     iteration #  7     ecut=    50.00 Ry     beta= 0.70
     Davidson diagonalization with overlap
     ethr =  2.91E-08,  avg # of iterations =  2.0

     total cpu time spent up to now is      748.6 secs

     total energy              =    -730.88002249 Ry
     Harris-Foulkes estimate   =    -730.88002289 Ry
     estimated scf accuracy    <       0.00000273 Ry

     iteration #  8     ecut=    50.00 Ry     beta= 0.70
     Davidson diagonalization with overlap
     ethr =  1.07E-09,  avg # of iterations =  3.0

     total cpu time spent up to now is      844.4 secs

     total energy              =    -730.88002312 Ry
     Harris-Foulkes estimate   =    -730.88002353 Ry
     estimated scf accuracy    <       0.00000178 Ry

     iteration #  9     ecut=    50.00 Ry     beta= 0.70
     Davidson diagonalization with overlap
     ethr =  6.95E-10,  avg # of iterations =  2.0

     total cpu time spent up to now is      959.8 secs

     total energy              =    -730.88002305 Ry
     Harris-Foulkes estimate   =    -730.88002325 Ry
     estimated scf accuracy    <       0.00000069 Ry

     iteration # 10     ecut=    50.00 Ry     beta= 0.70
     Davidson diagonalization with overlap
     ethr =  2.69E-10,  avg # of iterations =  1.0

     total cpu time spent up to now is     1070.3 secs

     total energy              =    -730.88002303 Ry
     Harris-Foulkes estimate   =    -730.88002309 Ry
     estimated scf accuracy    <       0.00000016 Ry

     iteration # 11     ecut=    50.00 Ry     beta= 0.70
     Davidson diagonalization with overlap
     ethr =  6.23E-11,  avg # of iterations =  3.0

     total cpu time spent up to now is     1200.5 secs

     End of self-consistent calculation

          k = 0.2500 0.2500 0.2500 ( 52563 PWs)   bands (ev):

    -5.6274  -5.1034  -5.0992  -5.0952  -4.6042  -4.6002  -4.5963  -4.1670
    -4.0715  -4.0672  -4.0631  -3.6598  -3.6541  -3.6532  -3.6511  -3.6484
    -3.6419  -3.4645  -3.4593  -3.4541  -2.9682  -2.9634  -2.9587  -2.5996
    -2.5942  -2.5892  -2.4336  -2.4290  -2.4275  -2.4257  -2.4232  -2.4169
    -0.8911  -0.8873  -0.8862  -0.8837  -0.8806  -0.8765  -0.7909  -0.7864
    -0.7817  -0.6716  -0.6680  -0.6644  -0.5893  -0.5821  -0.5746   0.1203
     0.1973   0.2006   0.2026   0.2055   0.2092   0.2125   1.0735   1.0791
     1.0846   1.4097   1.4120   1.4143   2.0180   2.0201   2.0216   2.0231
     2.0258   2.0263   2.0787   2.0813   2.0845   2.6309   2.6333   2.6357
     2.7311   2.7329   2.7353   2.7367   2.7403   2.7427   2.7868   2.7900
     2.7934   3.0960   3.0974   3.0994   3.1020   3.1031   3.1059   3.3626
     3.3649   3.3670   3.3772   3.3792   3.3813   3.7240   3.7279   3.7313
     3.7447   3.7499   3.7549   3.8297   3.8325   3.8352   4.0988   4.1040
     4.1067   4.1070   4.1104   4.1158   4.1434   4.1470   4.1499   4.4067
     4.4615   4.4639   4.4666   4.7041   4.7073   4.7107   4.7665   4.7720
     4.7783   4.9292   4.9293   5.2322   5.2367   5.2410   5.7171   5.7173
     6.9263   6.9303   6.9342   7.3657   7.3706   7.3753   7.5967   7.8524
     7.8563   7.8600   7.9814   7.9860   7.9908   8.1409   8.1447   8.1481
     8.1617   8.1653   8.1687   8.3913   8.3937   8.3964   8.4003   8.4028
     8.4441   8.6531

          k =-0.2500-0.2500 0.2500 ( 52563 PWs)   bands (ev):

    -5.6274  -5.1019  -5.0993  -5.0968  -4.6027  -4.6002  -4.5977  -4.1671
    -4.0699  -4.0673  -4.0648  -3.6598  -3.6535  -3.6530  -3.6507  -3.6490
    -3.6423  -3.4645  -3.4593  -3.4541  -2.9662  -2.9634  -2.9607  -2.5996
    -2.5943  -2.5892  -2.4334  -2.4289  -2.4277  -2.4253  -2.4236  -2.4169
    -0.8914  -0.8870  -0.8861  -0.8833  -0.8808  -0.8768  -0.7908  -0.7863
    -0.7817  -0.6716  -0.6680  -0.6643  -0.5874  -0.5821  -0.5765   0.1202
     0.1970   0.2009   0.2039   0.2051   0.2089   0.2119   1.0740   1.0792
     1.0841   1.4104   1.4120   1.4135   2.0189   2.0195   2.0219   2.0234
     2.0244   2.0262   2.0800   2.0818   2.0836   2.6309   2.6333   2.6356
     2.7313   2.7330   2.7353   2.7368   2.7396   2.7414   2.7884   2.7904
     2.7929   3.0953   3.0981   3.1000   3.1016   3.1037   3.1050   3.3630
     3.3649   3.3666   3.3780   3.3797   3.3803   3.7247   3.7278   3.7307
     3.7449   3.7499   3.7548   3.8303   3.8323   3.8345   4.0983   4.1048
     4.1066   4.1074   4.1097   4.1162   4.1444   4.1465   4.1495   4.4067
     4.4614   4.4640   4.4664   4.7050   4.7073   4.7097   4.7677   4.7720
     4.7770   4.9294   4.9294   5.2337   5.2366   5.2398   5.7171   5.7173
     6.9263   6.9303   6.9342   7.3665   7.3706   7.3744   7.5967   7.8532
     7.8565   7.8594   7.9813   7.9860   7.9908   8.1422   8.1449   8.1473
     8.1615   8.1650   8.1683   8.3901   8.3932   8.3957   8.3970   8.4013
     8.4033   8.4442

          k =-0.2500 0.2500-0.2500 ( 52563 PWs)   bands (ev):

    -5.6274  -5.1034  -5.0992  -5.0952  -4.6042  -4.6002  -4.5963  -4.1670
    -4.0715  -4.0672  -4.0631  -3.6598  -3.6541  -3.6532  -3.6511  -3.6484
    -3.6419  -3.4645  -3.4593  -3.4541  -2.9682  -2.9634  -2.9587  -2.5996
    -2.5942  -2.5892  -2.4336  -2.4290  -2.4275  -2.4257  -2.4232  -2.4169
    -0.8911  -0.8873  -0.8862  -0.8837  -0.8806  -0.8765  -0.7909  -0.7864
    -0.7817  -0.6716  -0.6680  -0.6644  -0.5893  -0.5821  -0.5746   0.1203
     0.1973   0.2006   0.2026   0.2055   0.2092   0.2125   1.0735   1.0791
     1.0846   1.4097   1.4120   1.4143   2.0180   2.0201   2.0216   2.0231
     2.0258   2.0263   2.0787   2.0813   2.0845   2.6309   2.6333   2.6357
     2.7311   2.7329   2.7353   2.7367   2.7403   2.7427   2.7868   2.7900
     2.7934   3.0960   3.0974   3.0994   3.1020   3.1031   3.1059   3.3627
     3.3649   3.3670   3.3772   3.3792   3.3813   3.7240   3.7279   3.7313
     3.7447   3.7499   3.7549   3.8297   3.8325   3.8352   4.0988   4.1040
     4.1067   4.1070   4.1104   4.1158   4.1434   4.1470   4.1499   4.4067
     4.4615   4.4639   4.4666   4.7041   4.7073   4.7107   4.7665   4.7720
     4.7783   4.9292   4.9293   5.2322   5.2367   5.2410   5.7171   5.7173
     6.9263   6.9303   6.9342   7.3657   7.3706   7.3753   7.5967   7.8524
     7.8563   7.8600   7.9814   7.9860   7.9908   8.1409   8.1447   8.1481
     8.1617   8.1653   8.1687   8.3913   8.3929   8.3948   8.3977   8.4010
     8.4032   8.4441

          k = 0.2500-0.2500-0.2500 ( 52563 PWs)   bands (ev):

    -5.6274  -5.1019  -5.0993  -5.0968  -4.6027  -4.6002  -4.5977  -4.1671
    -4.0699  -4.0673  -4.0648  -3.6598  -3.6535  -3.6530  -3.6507  -3.6490
    -3.6423  -3.4645  -3.4593  -3.4541  -2.9662  -2.9634  -2.9607  -2.5996
    -2.5943  -2.5892  -2.4334  -2.4289  -2.4277  -2.4253  -2.4236  -2.4169
    -0.8914  -0.8870  -0.8861  -0.8833  -0.8808  -0.8768  -0.7908  -0.7863
    -0.7817  -0.6716  -0.6680  -0.6643  -0.5874  -0.5821  -0.5765   0.1202
     0.1970   0.2009   0.2039   0.2051   0.2089   0.2119   1.0740   1.0792
     1.0841   1.4104   1.4120   1.4135   2.0189   2.0195   2.0219   2.0234
     2.0244   2.0262   2.0800   2.0818   2.0836   2.6309   2.6333   2.6356
     2.7313   2.7330   2.7353   2.7368   2.7396   2.7414   2.7884   2.7904
     2.7929   3.0953   3.0981   3.1000   3.1016   3.1037   3.1050   3.3630
     3.3649   3.3666   3.3780   3.3797   3.3803   3.7247   3.7278   3.7307
     3.7449   3.7499   3.7548   3.8303   3.8323   3.8345   4.0983   4.1048
     4.1066   4.1074   4.1097   4.1162   4.1444   4.1465   4.1495   4.4067
     4.4614   4.4640   4.4664   4.7050   4.7073   4.7097   4.7677   4.7720
     4.7770   4.9294   4.9294   5.2337   5.2366   5.2398   5.7171   5.7173
     6.9263   6.9303   6.9342   7.3665   7.3706   7.3744   7.5967   7.8532
     7.8565   7.8594   7.9813   7.9860   7.9908   8.1422   8.1449   8.1473
     8.1615   8.1650   8.1683   8.3901   8.3932   8.3957   8.3970   8.4013
     8.4033   8.4442

     the Fermi energy is     6.3211 ev

!    total energy              =    -730.88002304 Ry
     Harris-Foulkes estimate   =    -730.88002305 Ry
     estimated scf accuracy    <          9.1E-09 Ry

     The total energy is the sum of the following terms:

     one-electron contribution =     160.47295756 Ry
     hartree contribution      =      35.78710754 Ry
     xc contribution           =    -393.13386046 Ry
     ewald contribution        =    -534.00622769 Ry
     smearing contrib. (-TS)   =      -0.00000000 Ry

     convergence has been achieved in  11 iterations

     Forces acting on atoms (cartesian axes, Ry/au):

     atom    1 type  1   force =    -0.01610004   -0.00000930   -0.00007532
     atom    2 type  1   force =    -0.00001957   -0.00000898    0.00007518
     atom    3 type  1   force =    -0.00018124   -0.00011463    0.00022966
     atom    4 type  1   force =    -0.00023735   -0.00011070   -0.00022517
     atom    5 type  1   force =     0.00001204    0.00000882    0.00007529
     atom    6 type  1   force =    -0.00004943    0.00000915   -0.00007533
     atom    7 type  1   force =    -0.00071262    0.00011489   -0.00023068
     atom    8 type  1   force =    -0.00020705    0.00011079    0.00022541
     atom    9 type  1   force =    -0.00076759    0.00034485    0.00000141
     atom   10 type  1   force =    -0.00022974   -0.00021562   -0.00010074
     atom   11 type  1   force =    -0.00076387   -0.00012101    0.00000534
     atom   12 type  1   force =    -0.00022895    0.00023352    0.00010275
     atom   13 type  1   force =    -0.00056958   -0.00018451    0.00010032
     atom   14 type  1   force =    -0.00004194    0.00006671   -0.00000133
     atom   15 type  1   force =    -0.00057430   -0.00004019   -0.00010724
     atom   16 type  1   force =    -0.00004225   -0.00008480   -0.00000095
     atom   17 type  1   force =     0.00023701   -0.00011010    0.00022636
     atom   18 type  1   force =     0.00018151   -0.00011451   -0.00022858
     atom   19 type  1   force =     0.00001960   -0.00000886   -0.00007467
     atom   20 type  1   force =     0.01610044   -0.00000950    0.00007640
     atom   21 type  1   force =     0.00020769    0.00011090   -0.00022617
     atom   22 type  1   force =     0.00071207    0.00011511    0.00022962
     atom   23 type  1   force =     0.00004950    0.00000889    0.00007492
     atom   24 type  1   force =    -0.00001240    0.00000853   -0.00007605
     atom   25 type  1   force =     0.00022896    0.00023433   -0.00010193
     atom   26 type  1   force =     0.00076360   -0.00012011   -0.00000466
     atom   27 type  1   force =     0.00022990   -0.00021650    0.00010140
     atom   28 type  1   force =     0.00076745    0.00034473   -0.00000059
     atom   29 type  1   force =     0.00004253   -0.00008448    0.00000012
     atom   30 type  1   force =     0.00057418   -0.00003957    0.00010610
     atom   31 type  1   force =     0.00004187    0.00006624    0.00000008
     atom   32 type  1   force =     0.00056933   -0.00018499   -0.00010137
     atom   33 type  1   force =    -0.00001075    0.00006874   -0.00000456
     atom   34 type  1   force =    -0.00369926    0.00276540   -0.00270838
     atom   35 type  1   force =     0.00000010    0.00005071   -0.00000114
     atom   36 type  1   force =    -0.00000029    0.00008611   -0.00001004
     atom   37 type  1   force =    -0.00000007    0.00005121    0.00000128
     atom   38 type  1   force =    -0.00000013    0.00008653    0.00001006
     atom   39 type  1   force =     0.00001102    0.00006897    0.00000406
     atom   40 type  1   force =     0.00369919    0.00276472    0.00270810
     atom   41 type  1   force =    -0.00003633   -0.00006105   -0.00000961
     atom   42 type  1   force =     0.00401698   -0.00277413   -0.00268831
     atom   43 type  1   force =     0.00003631   -0.00006211    0.00001109
     atom   44 type  1   force =    -0.00401656   -0.00277461    0.00268980
     atom   45 type  1   force =     0.00004746   -0.00005828    0.00000722
     atom   46 type  1   force =    -0.00031805   -0.00007634   -0.00001025
     atom   47 type  1   force =    -0.00004685   -0.00005848   -0.00000789
     atom   48 type  1   force =     0.00031789   -0.00007688    0.00000939
     atom   49 type  1   force =    -0.00004704   -0.00007263    0.00001398
     atom   50 type  1   force =    -0.00381068   -0.00253666   -0.00248093
     atom   51 type  1   force =     0.00381041   -0.00253686    0.00248254
     atom   52 type  1   force =     0.00004725   -0.00007298   -0.00001285
     atom   53 type  1   force =     0.00022703   -0.00005675    0.00000088
     atom   54 type  1   force =     0.00003657   -0.00008130   -0.00000502
     atom   55 type  1   force =    -0.00003665   -0.00008166    0.00000426
     atom   56 type  1   force =    -0.00022724   -0.00005689   -0.00000213
     atom   57 type  1   force =    -0.00008573    0.00007671   -0.00000649
     atom   58 type  1   force =     0.00008547    0.00006494    0.00002522
     atom   59 type  1   force =     0.00026551    0.00006401    0.00001028
     atom   60 type  1   force =    -0.00385946    0.00254264    0.00247996
     atom   61 type  1   force =     0.00385964    0.00254288   -0.00248048
     atom   62 type  1   force =    -0.00026558    0.00006447   -0.00001044
     atom   63 type  1   force =    -0.00008538    0.00006426   -0.00002491
     atom   64 type  1   force =     0.00008551    0.00007619    0.00000575

     Total force =     0.027461     Total SCF correction =     0.000122

     Writing output data file pwscf.save/
 
     init_run     :     39.45s CPU     40.92s WALL (       1 calls)
     electrons    :   1002.50s CPU   1159.10s WALL (       1 calls)
     forces       :     20.21s CPU     30.94s WALL (       1 calls)

     Called by init_run:
     wfcinit      :     37.44s CPU     38.49s WALL (       1 calls)
     potinit      :      0.41s CPU      0.45s WALL (       1 calls)
     hinit0       :      0.48s CPU      0.50s WALL (       1 calls)

     Called by electrons:
     c_bands      :    845.40s CPU    968.50s WALL (      12 calls)
     sum_band     :    143.04s CPU    170.89s WALL (      12 calls)
     v_of_rho     :      3.36s CPU      3.93s WALL (      12 calls)
     newd         :     11.08s CPU     16.25s WALL (      12 calls)
     mix_rho      :      0.84s CPU      1.11s WALL (      12 calls)

     Called by c_bands:
     init_us_2    :     12.45s CPU     14.54s WALL (     104 calls)
     cegterg      :    762.11s CPU    873.96s WALL (      48 calls)

     Called by sum_band:
     sum_band:bec :      0.06s CPU      0.06s WALL (      48 calls)
     addusdens    :     10.80s CPU     15.42s WALL (      12 calls)

     Called by *egterg:
     h_psi        :    558.74s CPU    638.50s WALL (     201 calls)
     s_psi        :    114.87s CPU    128.56s WALL (     201 calls)
     g_psi        :      0.98s CPU      1.08s WALL (     149 calls)
     cdiaghg      :     10.00s CPU     10.78s WALL (     193 calls)

     Called by h_psi:
     h_psi:pot    :    557.01s CPU    634.32s WALL (     201 calls)
     h_psi:calbec :    119.10s CPU    133.70s WALL (     201 calls)
     vloc_psi     :    322.13s CPU    371.84s WALL (     201 calls)
     add_vuspsi   :    115.78s CPU    128.77s WALL (     201 calls)

     General routines
     calbec       :    176.99s CPU    206.46s WALL (     265 calls)
     fft          :      2.74s CPU      3.36s WALL (     145 calls)
     ffts         :      0.15s CPU      0.20s WALL (      12 calls)
     fftw         :    323.23s CPU    379.52s WALL (   46788 calls)
 
     Parallel routines
     fft_scatt_xy :     69.85s CPU     75.29s WALL (   46945 calls)
     fft_scatt_yz :     76.74s CPU    112.47s WALL (   46945 calls)
 
     PWSCF        : 17m43.03s CPU    20m32.55s WALL

 
   This run was terminated on:  13:18:40  14Feb2020            

=------------------------------------------------------------------------------=
   JOB DONE.
=------------------------------------------------------------------------------=
