
     Program PWSCF v.6.3MaX starts on 14Feb2020 at 22:35:35 

     This program is part of the open-source Quantum ESPRESSO suite
     for quantum simulation of materials; please cite
         "P. Giannozzi et al., J. Phys.:Condens. Matter 21 395502 (2009);
         "P. Giannozzi et al., J. Phys.:Condens. Matter 29 465901 (2017);
          URL http://www.quantum-espresso.org", 
     in publications or presentations arising from this work. More details at
     http://www.quantum-espresso.org/quote

     Parallel version (MPI), running on     2 processors

     MPI processes distributed on     1 nodes
     R & G space division:  proc/nbgrp/npool/nimage =       2
     Waiting for input...
     Reading input from standard input

     Current dimensions of program PWSCF are:
     Max number of different atomic species (ntypx) = 10
     Max number of k-points (npk) =  40000
     Max angular momentum in pseudopotentials (lmaxx) =  3

     Subspace diagonalization in iterative solution of the eigenvalue problem:
     a serial algorithm will be used

 
     Parallelization info
     --------------------
     sticks:   dense  smooth     PW     G-vecs:    dense   smooth      PW
     Min        3392    3392    878               210674   210674   27756
     Max        3393    3393    879               210675   210675   27759
     Sum        6785    6785   1757               421349   421349   55515
 


     bravais-lattice index     =            0
     lattice parameter (alat)  =      20.6591  a.u.
     unit-cell volume          =    8817.2783 (a.u.)^3
     number of atoms/cell      =           64
     number of atomic types    =            1
     number of electrons       =       256.00
     number of Kohn-Sham states=          154
     kinetic-energy cutoff     =      50.0000  Ry
     charge density cutoff     =     200.0000  Ry
     convergence threshold     =      1.0E-08
     mixing beta               =       0.7000
     number of iterations used =            8  plain     mixing
     Exchange-correlation      = PBE ( 1  4  3  4 0 0)

     celldm(1)=  20.659106  celldm(2)=   0.000000  celldm(3)=   0.000000
     celldm(4)=   0.000000  celldm(5)=   0.000000  celldm(6)=   0.000000

     crystal axes: (cart. coord. in units of alat)
               a(1) = (   1.000000   0.000000   0.000000 )  
               a(2) = (   0.000000   1.000000   0.000000 )  
               a(3) = (   0.000000   0.000000   1.000000 )  

     reciprocal axes: (cart. coord. in units 2 pi/alat)
               b(1) = (  1.000000  0.000000  0.000000 )  
               b(2) = (  0.000000  1.000000  0.000000 )  
               b(3) = (  0.000000  0.000000  1.000000 )  


     PseudoPot. # 1 for Si read from file:
     ~/kedar/softwares/SSSP_precision_pseudos/Si.pbe-n-rrkjus_psl.1.0.0.UPF
     MD5 check sum: Not computed, couldn't open file
     Pseudo is Ultrasoft + core correction, Zval =  4.0
     Generated using "atomic" code by A. Dal Corso v.5.1
     Using radial grid of 1141 points,  6 beta functions with: 
                l(1) =   0
                l(2) =   0
                l(3) =   1
                l(4) =   1
                l(5) =   2
                l(6) =   2
     Q(r) pseudized with 0 coefficients 


     atomic species   valence    mass     pseudopotential
        Si             4.00    28.08550     Si( 1.00)

     No symmetry found



   Cartesian axes

     site n.     atom                  positions (alat units)
         1           Si  tau(   1) = (   0.4404043   0.4375000   0.4375000  )
         2           Si  tau(   2) = (   0.9375000   0.4375000   0.4375000  )
         3           Si  tau(   3) = (   0.4375000   0.9375000   0.4375000  )
         4           Si  tau(   4) = (   0.9375000   0.9375000   0.4375000  )
         5           Si  tau(   5) = (   0.4375000   0.4375000   0.9375000  )
         6           Si  tau(   6) = (   0.9375000   0.4375000   0.9375000  )
         7           Si  tau(   7) = (   0.4375000   0.9375000   0.9375000  )
         8           Si  tau(   8) = (   0.9375000   0.9375000   0.9375000  )
         9           Si  tau(   9) = (   0.4375000   0.1875000   0.1875000  )
        10           Si  tau(  10) = (   0.9375000   0.1875000   0.1875000  )
        11           Si  tau(  11) = (   0.4375000   0.6875000   0.1875000  )
        12           Si  tau(  12) = (   0.9375000   0.6875000   0.1875000  )
        13           Si  tau(  13) = (   0.4375000   0.1875000   0.6875000  )
        14           Si  tau(  14) = (   0.9375000   0.1875000   0.6875000  )
        15           Si  tau(  15) = (   0.4375000   0.6875000   0.6875000  )
        16           Si  tau(  16) = (   0.9375000   0.6875000   0.6875000  )
        17           Si  tau(  17) = (   0.1875000   0.4375000   0.1875000  )
        18           Si  tau(  18) = (   0.6875000   0.4375000   0.1875000  )
        19           Si  tau(  19) = (   0.1875000   0.9375000   0.1875000  )
        20           Si  tau(  20) = (   0.6875000   0.9375000   0.1875000  )
        21           Si  tau(  21) = (   0.1875000   0.4375000   0.6875000  )
        22           Si  tau(  22) = (   0.6875000   0.4375000   0.6875000  )
        23           Si  tau(  23) = (   0.1875000   0.9375000   0.6875000  )
        24           Si  tau(  24) = (   0.6875000   0.9375000   0.6875000  )
        25           Si  tau(  25) = (   0.1875000   0.1875000   0.4375000  )
        26           Si  tau(  26) = (   0.6875000   0.1875000   0.4375000  )
        27           Si  tau(  27) = (   0.1875000   0.6875000   0.4375000  )
        28           Si  tau(  28) = (   0.6875000   0.6875000   0.4375000  )
        29           Si  tau(  29) = (   0.1875000   0.1875000   0.9375000  )
        30           Si  tau(  30) = (   0.6875000   0.1875000   0.9375000  )
        31           Si  tau(  31) = (   0.1875000   0.6875000   0.9375000  )
        32           Si  tau(  32) = (   0.6875000   0.6875000   0.9375000  )
        33           Si  tau(  33) = (   0.0625000   0.0625000   0.0625000  )
        34           Si  tau(  34) = (   0.5625000   0.0625000   0.0625000  )
        35           Si  tau(  35) = (   0.0625000   0.5625000   0.0625000  )
        36           Si  tau(  36) = (   0.5625000   0.5625000   0.0625000  )
        37           Si  tau(  37) = (   0.0625000   0.0625000   0.5625000  )
        38           Si  tau(  38) = (   0.5625000   0.0625000   0.5625000  )
        39           Si  tau(  39) = (   0.0625000   0.5625000   0.5625000  )
        40           Si  tau(  40) = (   0.5625000   0.5625000   0.5625000  )
        41           Si  tau(  41) = (   0.0625000   0.3125000   0.3125000  )
        42           Si  tau(  42) = (   0.5625000   0.3125000   0.3125000  )
        43           Si  tau(  43) = (   0.0625000   0.8125000   0.3125000  )
        44           Si  tau(  44) = (   0.5625000   0.8125000   0.3125000  )
        45           Si  tau(  45) = (   0.0625000   0.3125000   0.8125000  )
        46           Si  tau(  46) = (   0.5625000   0.3125000   0.8125000  )
        47           Si  tau(  47) = (   0.0625000   0.8125000   0.8125000  )
        48           Si  tau(  48) = (   0.5625000   0.8125000   0.8125000  )
        49           Si  tau(  49) = (   0.3125000   0.0625000   0.3125000  )
        50           Si  tau(  50) = (   0.8125000   0.0625000   0.3125000  )
        51           Si  tau(  51) = (   0.3125000   0.5625000   0.3125000  )
        52           Si  tau(  52) = (   0.8125000   0.5625000   0.3125000  )
        53           Si  tau(  53) = (   0.3125000   0.0654043   0.8125000  )
        54           Si  tau(  54) = (   0.8125000   0.0625000   0.8125000  )
        55           Si  tau(  55) = (   0.3125000   0.5625000   0.8125000  )
        56           Si  tau(  56) = (   0.8125000   0.5625000   0.8125000  )
        57           Si  tau(  57) = (   0.3125000   0.3125000   0.0625000  )
        58           Si  tau(  58) = (   0.8125000   0.3125000   0.0625000  )
        59           Si  tau(  59) = (   0.3125000   0.8125000   0.0625000  )
        60           Si  tau(  60) = (   0.8125000   0.8125000   0.0625000  )
        61           Si  tau(  61) = (   0.3125000   0.3125000   0.5625000  )
        62           Si  tau(  62) = (   0.8125000   0.3125000   0.5625000  )
        63           Si  tau(  63) = (   0.3125000   0.8125000   0.5625000  )
        64           Si  tau(  64) = (   0.8125000   0.8125000   0.5625000  )

     number of k points=     4  gaussian smearing, width (Ry)=  0.0100
                       cart. coord. in units 2pi/alat
        k(    1) = (   0.2500000   0.2500000   0.2500000), wk =   0.5000000
        k(    2) = (  -0.2500000  -0.2500000   0.2500000), wk =   0.5000000
        k(    3) = (  -0.2500000   0.2500000  -0.2500000), wk =   0.5000000
        k(    4) = (   0.2500000  -0.2500000  -0.2500000), wk =   0.5000000

     Dense  grid:   421349 G-vectors     FFT dimensions: (  96,  96,  96)

     Estimated max dynamical RAM per process >       2.05 GB

     Estimated total dynamical RAM >       4.11 GB

     Check: negative/imaginary core charge=   -0.000001    0.000000

     Initial potential from superposition of free atoms

     starting charge  255.96421, renormalised to  256.00000
     Starting wfcs are  256 randomized atomic wfcs

     total cpu time spent up to now is      110.2 secs

     Self-consistent Calculation

     iteration #  1     ecut=    50.00 Ry     beta= 0.70
     Davidson diagonalization with overlap
     ethr =  1.00E-02,  avg # of iterations =  3.0

     Threshold (ethr) on eigenvalues was too large:
     Diagonalizing with lowered threshold

     Davidson diagonalization with overlap
     ethr =  6.78E-04,  avg # of iterations =  2.0

     total cpu time spent up to now is      526.0 secs

     total energy              =    -730.80291034 Ry
     Harris-Foulkes estimate   =    -731.20906387 Ry
     estimated scf accuracy    <       1.72062324 Ry

     iteration #  2     ecut=    50.00 Ry     beta= 0.70
     Davidson diagonalization with overlap
     ethr =  6.72E-04,  avg # of iterations =  1.0

     total cpu time spent up to now is      638.9 secs

     total energy              =    -730.86492740 Ry
     Harris-Foulkes estimate   =    -730.87089823 Ry
     estimated scf accuracy    <       0.08012975 Ry

     iteration #  3     ecut=    50.00 Ry     beta= 0.70
     Davidson diagonalization with overlap
     ethr =  3.13E-05,  avg # of iterations = 10.2

     total cpu time spent up to now is      829.7 secs

     total energy              =    -730.87933773 Ry
     Harris-Foulkes estimate   =    -730.88059168 Ry
     estimated scf accuracy    <       0.00275286 Ry

     iteration #  4     ecut=    50.00 Ry     beta= 0.70
     Davidson diagonalization with overlap
     ethr =  1.08E-06,  avg # of iterations =  4.5

     total cpu time spent up to now is      936.3 secs

     total energy              =    -730.87964982 Ry
     Harris-Foulkes estimate   =    -730.88059724 Ry
     estimated scf accuracy    <       0.00271433 Ry

     iteration #  5     ecut=    50.00 Ry     beta= 0.70
     Davidson diagonalization with overlap
     ethr =  1.06E-06,  avg # of iterations =  2.0

     total cpu time spent up to now is     1020.7 secs

     total energy              =    -730.87998843 Ry
     Harris-Foulkes estimate   =    -730.88009555 Ry
     estimated scf accuracy    <       0.00031392 Ry

     iteration #  6     ecut=    50.00 Ry     beta= 0.70
     Davidson diagonalization with overlap
     ethr =  1.23E-07,  avg # of iterations =  3.0

     total cpu time spent up to now is     1106.0 secs

     total energy              =    -730.88001248 Ry
     Harris-Foulkes estimate   =    -730.88004198 Ry
     estimated scf accuracy    <       0.00007284 Ry

     iteration #  7     ecut=    50.00 Ry     beta= 0.70
     Davidson diagonalization with overlap
     ethr =  2.85E-08,  avg # of iterations =  2.0

     total cpu time spent up to now is     1197.9 secs

     total energy              =    -730.88002323 Ry
     Harris-Foulkes estimate   =    -730.88002382 Ry
     estimated scf accuracy    <       0.00000317 Ry

     iteration #  8     ecut=    50.00 Ry     beta= 0.70
     Davidson diagonalization with overlap
     ethr =  1.24E-09,  avg # of iterations =  3.0

     total cpu time spent up to now is     1308.9 secs

     total energy              =    -730.88002394 Ry
     Harris-Foulkes estimate   =    -730.88002434 Ry
     estimated scf accuracy    <       0.00000185 Ry

     iteration #  9     ecut=    50.00 Ry     beta= 0.70
     Davidson diagonalization with overlap
     ethr =  7.22E-10,  avg # of iterations =  2.0

     total cpu time spent up to now is     1391.8 secs

     total energy              =    -730.88002385 Ry
     Harris-Foulkes estimate   =    -730.88002409 Ry
     estimated scf accuracy    <       0.00000082 Ry

     iteration # 10     ecut=    50.00 Ry     beta= 0.70
     Davidson diagonalization with overlap
     ethr =  3.19E-10,  avg # of iterations =  1.0

     total cpu time spent up to now is     1469.5 secs

     total energy              =    -730.88002383 Ry
     Harris-Foulkes estimate   =    -730.88002390 Ry
     estimated scf accuracy    <       0.00000018 Ry

     iteration # 11     ecut=    50.00 Ry     beta= 0.70
     Davidson diagonalization with overlap
     ethr =  6.94E-11,  avg # of iterations =  3.0

     total cpu time spent up to now is     1564.6 secs

     total energy              =    -730.88002385 Ry
     Harris-Foulkes estimate   =    -730.88002386 Ry
     estimated scf accuracy    <       0.00000001 Ry

     iteration # 12     ecut=    50.00 Ry     beta= 0.70
     Davidson diagonalization with overlap
     ethr =  5.08E-12,  avg # of iterations =  3.0

     total cpu time spent up to now is     1659.3 secs

     End of self-consistent calculation

          k = 0.2500 0.2500 0.2500 ( 52563 PWs)   bands (ev):

    -5.6275  -5.1020  -5.1000  -5.0960  -4.6028  -4.6008  -4.5971  -4.1670
    -4.0702  -4.0680  -4.0638  -3.6602  -3.6547  -3.6523  -3.6499  -3.6491
    -3.6423  -3.4638  -3.4594  -3.4548  -2.9671  -2.9638  -2.9595  -2.5996
    -2.5943  -2.5892  -2.4344  -2.4289  -2.4273  -2.4249  -2.4233  -2.4172
    -0.8932  -0.8872  -0.8857  -0.8812  -0.8807  -0.8772  -0.7918  -0.7864
    -0.7811  -0.6737  -0.6682  -0.6621  -0.5897  -0.5816  -0.5749   0.1202
     0.1948   0.2011   0.2028   0.2081   0.2096   0.2111   1.0727   1.0792
     1.0853   1.4075   1.4120   1.4164   2.0173   2.0199   2.0224   2.0232
     2.0241   2.0276   2.0785   2.0818   2.0846   2.6302   2.6334   2.6362
     2.7308   2.7322   2.7350   2.7386   2.7392   2.7420   2.7863   2.7896
     2.7950   3.0952   3.0982   3.1001   3.1010   3.1030   3.1062   3.3623
     3.3644   3.3678   3.3751   3.3795   3.3831   3.7241   3.7283   3.7306
     3.7456   3.7495   3.7543   3.8295   3.8330   3.8349   4.0986   4.1050
     4.1061   4.1082   4.1100   4.1148   4.1434   4.1474   4.1495   4.4066
     4.4605   4.4638   4.4676   4.7040   4.7076   4.7102   4.7660   4.7720
     4.7786   4.9249   4.9337   5.2321   5.2372   5.2406   5.7122   5.7221
     6.9270   6.9297   6.9341   7.3654   7.3724   7.3739   7.5967   7.8513
     7.8577   7.8598   7.9815   7.9861   7.9905   8.1408   8.1452   8.1482
     8.1622   8.1637   8.1693   8.3892   8.3926   8.3962   8.3986   8.4010
     8.4030   8.4443

          k =-0.2500-0.2500 0.2500 ( 52563 PWs)   bands (ev):

    -5.6275  -5.1034  -5.0988  -5.0957  -4.6044  -4.5998  -4.5965  -4.1672
    -4.0714  -4.0668  -4.0638  -3.6621  -3.6524  -3.6513  -3.6506  -3.6483
    -3.6436  -3.4639  -3.4593  -3.4548  -2.9679  -2.9631  -2.9594  -2.5995
    -2.5943  -2.5893  -2.4356  -2.4270  -2.4261  -2.4255  -2.4234  -2.4184
    -0.8934  -0.8874  -0.8847  -0.8835  -0.8817  -0.8745  -0.7919  -0.7862
    -0.7813  -0.6737  -0.6682  -0.6622  -0.5868  -0.5832  -0.5761   0.1201
     0.1949   0.1992   0.2037   0.2052   0.2083   0.2161   1.0748   1.0788
     1.0836   1.4079   1.4120   1.4160   2.0177   2.0205   2.0214   2.0227
     2.0254   2.0270   2.0787   2.0812   2.0850   2.6302   2.6334   2.6361
     2.7297   2.7325   2.7363   2.7383   2.7399   2.7414   2.7858   2.7910
     2.7938   3.0927   3.0988   3.1002   3.1016   3.1027   3.1077   3.3621
     3.3644   3.3673   3.3753   3.3795   3.3836   3.7236   3.7276   3.7313
     3.7457   3.7495   3.7550   3.8290   3.8322   3.8362   4.0995   4.1032
     4.1071   4.1076   4.1103   4.1154   4.1428   4.1461   4.1510   4.4065
     4.4606   4.4638   4.4676   4.7033   4.7069   4.7115   4.7683   4.7716
     4.7768   4.9249   4.9336   5.2314   5.2361   5.2424   5.7122   5.7221
     6.9270   6.9296   6.9341   7.3664   7.3692   7.3760   7.5967   7.8527
     7.8549   7.8613   7.9815   7.9861   7.9905   8.1417   8.1445   8.1479
     8.1626   8.1637   8.1690   8.3886   8.3928   8.3964   8.3982   8.4004
     8.4043   8.4442

          k =-0.2500 0.2500-0.2500 ( 52563 PWs)   bands (ev):

    -5.6275  -5.1018  -5.0993  -5.0966  -4.6027  -4.6004  -4.5976  -4.1682
    -4.0702  -4.0677  -4.0652  -3.6566  -3.6549  -3.6535  -3.6511  -3.6475
    -3.6419  -3.4622  -3.4598  -3.4539  -2.9681  -2.9656  -2.9624  -2.5976
    -2.5960  -2.5883  -2.4311  -2.4295  -2.4282  -2.4259  -2.4213  -2.4182
    -0.8910  -0.8887  -0.8871  -0.8839  -0.8807  -0.8771  -0.7915  -0.7889
    -0.7812  -0.6743  -0.6689  -0.6662  -0.5835  -0.5773  -0.5724   0.1239
     0.1958   0.1985   0.2008   0.2045   0.2062   0.2125   1.0766   1.0811
     1.0868   1.4088   1.4132   1.4138   2.0179   2.0202   2.0219   2.0235
     2.0249   2.0257   2.0782   2.0810   2.0821   2.6331   2.6339   2.6386
     2.7290   2.7315   2.7345   2.7368   2.7386   2.7398   2.7848   2.7888
     2.7902   3.0968   3.0975   3.0995   3.1003   3.1040   3.1065   3.3610
     3.3643   3.3648   3.3759   3.3791   3.3797   3.7268   3.7293   3.7329
     3.7494   3.7505   3.7591   3.8292   3.8305   3.8342   4.1052   4.1062
     4.1068   4.1093   4.1144   4.1174   4.1428   4.1445   4.1489   4.4109
     4.4588   4.4626   4.4633   4.7032   4.7045   4.7082   4.7723   4.7769
     4.7821   4.9255   4.9306   5.2309   5.2327   5.2378   5.7119   5.7176
     6.9264   6.9275   6.9318   7.3660   7.3691   7.3741   7.5952   7.8515
     7.8537   7.8585   7.9828   7.9889   7.9908   8.1419   8.1439   8.1472
     8.1618   8.1649   8.1661   8.3927   8.3951   8.3963   8.4000   8.4023
     8.4051   8.4419

          k = 0.2500-0.2500-0.2500 ( 52563 PWs)   bands (ev):

    -5.6274  -5.1021  -5.0994  -5.0968  -4.6029  -4.6000  -4.5977  -4.1660
    -4.0696  -4.0670  -4.0644  -3.6612  -3.6557  -3.6503  -3.6497  -3.6481
    -3.6464  -3.4646  -3.4589  -3.4566  -2.9646  -2.9613  -2.9589  -2.6006
    -2.5927  -2.5909  -2.4341  -2.4312  -2.4248  -2.4246  -2.4220  -2.4211
    -0.8917  -0.8887  -0.8823  -0.8814  -0.8797  -0.8788  -0.7913  -0.7836
    -0.7816  -0.6701  -0.6675  -0.6612  -0.5914  -0.5868  -0.5809   0.1164
     0.1968   0.2019   0.2063   0.2096   0.2102   0.2118   1.0714   1.0771
     1.0815   1.4102   1.4107   1.4151   2.0185   2.0202   2.0226   2.0234
     2.0242   2.0265   2.0811   2.0821   2.0848   2.6285   2.6320   2.6334
     2.7325   2.7348   2.7367   2.7390   2.7403   2.7430   2.7900   2.7913
     2.7960   3.0948   3.0978   3.1007   3.1022   3.1026   3.1045   3.3640
     3.3653   3.3687   3.3789   3.3795   3.3832   3.7219   3.7261   3.7288
     3.7427   3.7478   3.7499   3.8310   3.8343   3.8356   4.0970   4.0994
     4.1049   4.1071   4.1084   4.1095   4.1452   4.1488   4.1500   4.4025
     4.4640   4.4648   4.4700   4.7063   4.7100   4.7116   4.7627   4.7677
     4.7716   4.9280   4.9330   5.2354   5.2404   5.2423   5.7167   5.7225
     6.9285   6.9323   6.9350   7.3670   7.3719   7.3750   7.5982   7.8541
     7.8588   7.8608   7.9813   7.9833   7.9891   8.1426   8.1455   8.1480
     8.1624   8.1644   8.1703   8.3879   8.3912   8.3942   8.3968   8.3993
     8.4004   8.4468

     the Fermi energy is     6.3205 ev

!    total energy              =    -730.88002385 Ry
     Harris-Foulkes estimate   =    -730.88002386 Ry
     estimated scf accuracy    <          5.0E-09 Ry

     The total energy is the sum of the following terms:

     one-electron contribution =     160.47288428 Ry
     hartree contribution      =      35.78734670 Ry
     xc contribution           =    -393.13399499 Ry
     ewald contribution        =    -534.00625984 Ry
     smearing contrib. (-TS)   =      -0.00000000 Ry

     convergence has been achieved in  12 iterations

     Forces acting on atoms (cartesian axes, Ry/au):

     atom    1 type  1   force =    -0.01608142    0.00002850   -0.00002878
     atom    2 type  1   force =    -0.00000754   -0.00002079   -0.00003070
     atom    3 type  1   force =     0.00000582   -0.00005628   -0.00003690
     atom    4 type  1   force =    -0.00003553    0.00025557   -0.00002772
     atom    5 type  1   force =     0.00001729   -0.00000980   -0.00003617
     atom    6 type  1   force =    -0.00003279    0.00002835   -0.00002909
     atom    7 type  1   force =    -0.00298778    0.00384025   -0.00250829
     atom    8 type  1   force =    -0.00000923   -0.00005616   -0.00005098
     atom    9 type  1   force =    -0.00048095    0.00005481    0.00007751
     atom   10 type  1   force =     0.00002935    0.00026923   -0.00001844
     atom   11 type  1   force =    -0.00049759    0.00013665   -0.00013475
     atom   12 type  1   force =     0.00003258   -0.00001065   -0.00004036
     atom   13 type  1   force =     0.00221051    0.00384925   -0.00262487
     atom   14 type  1   force =     0.00004198   -0.00006805   -0.00003966
     atom   15 type  1   force =    -0.00049370   -0.00012365   -0.00015191
     atom   16 type  1   force =     0.00002655    0.00001628   -0.00003653
     atom   17 type  1   force =     0.00025978   -0.00008246    0.00025093
     atom   18 type  1   force =     0.00026884   -0.00013427   -0.00019681
     atom   19 type  1   force =     0.00009492   -0.00006602   -0.00004132
     atom   20 type  1   force =     0.00007123    0.00024569    0.00010479
     atom   21 type  1   force =     0.00026632    0.00009965   -0.00018698
     atom   22 type  1   force =     0.00026537    0.00014287    0.00025737
     atom   23 type  1   force =     0.00255428    0.00385057    0.00258767
     atom   24 type  1   force =     0.00008081   -0.00004728   -0.00002636
     atom   25 type  1   force =     0.00018152    0.00016643   -0.00007192
     atom   26 type  1   force =     0.00020940    0.00002925   -0.00008757
     atom   27 type  1   force =     0.00020373   -0.00019807    0.00013489
     atom   28 type  1   force =     0.00020631    0.00020844    0.00014464
     atom   29 type  1   force =    -0.00269317    0.00388029    0.00272673
     atom   30 type  1   force =     0.00000727    0.00001661    0.00004019
     atom   31 type  1   force =     0.00000680    0.00006663    0.00004649
     atom   32 type  1   force =     0.00001945   -0.00004924    0.00003746
     atom   33 type  1   force =     0.00009533   -0.00049897   -0.00008476
     atom   34 type  1   force =     0.00036822   -0.00049780    0.00014009
     atom   35 type  1   force =     0.00003530    0.00002786    0.00001575
     atom   36 type  1   force =    -0.00004911    0.00005268    0.00004896
     atom   37 type  1   force =    -0.00008388   -0.00049919   -0.00008218
     atom   38 type  1   force =    -0.00017282   -0.00049215    0.00016186
     atom   39 type  1   force =    -0.00002051    0.00003892    0.00002803
     atom   40 type  1   force =     0.00395029    0.00273749    0.00274278
     atom   41 type  1   force =     0.00006465    0.00000667   -0.00002783
     atom   42 type  1   force =     0.00388340   -0.00269088   -0.00274436
     atom   43 type  1   force =    -0.00005054    0.00001832   -0.00001801
     atom   44 type  1   force =     0.00001841    0.00000582   -0.00005927
     atom   45 type  1   force =    -0.00020288    0.00020993    0.00008893
     atom   46 type  1   force =     0.00017018    0.00018813   -0.00015330
     atom   47 type  1   force =     0.00020526    0.00020081    0.00008079
     atom   48 type  1   force =     0.00003388    0.00020240   -0.00013787
     atom   49 type  1   force =    -0.00005618    0.00001983    0.00004998
     atom   50 type  1   force =     0.00002805   -0.00050186    0.00003006
     atom   51 type  1   force =     0.00384005   -0.00251668    0.00251005
     atom   52 type  1   force =    -0.00001087   -0.00001220    0.00003692
     atom   53 type  1   force =     0.00025265   -0.01608463    0.00002779
     atom   54 type  1   force =    -0.00001864    0.00002563    0.00003072
     atom   55 type  1   force =    -0.00005811   -0.00002597    0.00003708
     atom   56 type  1   force =     0.00002990   -0.00003612    0.00002662
     atom   57 type  1   force =    -0.00017232    0.00028783    0.00019369
     atom   58 type  1   force =     0.00002065    0.00007338   -0.00010146
     atom   59 type  1   force =     0.00014450    0.00025905   -0.00025298
     atom   60 type  1   force =    -0.00002954    0.00007297    0.00004702
     atom   61 type  1   force =     0.00395248    0.00274614   -0.00274205
     atom   62 type  1   force =    -0.00000007    0.00008205    0.00003726
     atom   63 type  1   force =     0.00005397    0.00026696    0.00017419
     atom   64 type  1   force =     0.00003791    0.00007094   -0.00010707

     Total force =     0.027469     Total SCF correction =     0.000131

     Writing output data file pwscf.save/
 
     init_run     :     40.95s CPU    109.08s WALL (       1 calls)
     electrons    :   1097.10s CPU   1549.15s WALL (       1 calls)
     forces       :     20.63s CPU     21.76s WALL (       1 calls)

     Called by init_run:
     wfcinit      :     39.38s CPU    104.06s WALL (       1 calls)
     potinit      :      0.32s CPU      0.93s WALL (       1 calls)
     hinit0       :      0.40s CPU      1.13s WALL (       1 calls)

     Called by electrons:
     c_bands      :    936.41s CPU   1327.16s WALL (      13 calls)
     sum_band     :    147.10s CPU    201.32s WALL (      13 calls)
     v_of_rho     :      3.38s CPU      4.75s WALL (      13 calls)
     newd         :     10.13s CPU     17.87s WALL (      13 calls)
     mix_rho      :      0.96s CPU      1.25s WALL (      13 calls)

     Called by c_bands:
     init_us_2    :     12.43s CPU     17.40s WALL (     112 calls)
     cegterg      :    844.59s CPU   1199.00s WALL (      52 calls)

     Called by sum_band:
     sum_band:bec :      0.07s CPU      0.08s WALL (      52 calls)
     addusdens    :     10.93s CPU     18.68s WALL (      13 calls)

     Called by *egterg:
     h_psi        :    615.31s CPU    909.10s WALL (     215 calls)
     s_psi        :    125.25s CPU    179.56s WALL (     215 calls)
     g_psi        :      1.10s CPU      1.45s WALL (     159 calls)
     cdiaghg      :     10.55s CPU     15.22s WALL (     207 calls)

     Called by h_psi:
     h_psi:pot    :    613.41s CPU    903.16s WALL (     215 calls)
     h_psi:calbec :    130.17s CPU    188.93s WALL (     215 calls)
     vloc_psi     :    357.44s CPU    532.00s WALL (     215 calls)
     add_vuspsi   :    125.80s CPU    182.23s WALL (     215 calls)

     General routines
     calbec       :    191.14s CPU    265.69s WALL (     283 calls)
     fft          :      2.78s CPU      4.09s WALL (     156 calls)
     ffts         :      0.18s CPU      0.25s WALL (      13 calls)
     fftw         :    359.01s CPU    539.69s WALL (   50844 calls)
 
     Parallel routines
     fft_scatt_xy :     71.56s CPU     88.67s WALL (   51013 calls)
     fft_scatt_yz :     98.89s CPU    210.43s WALL (   51013 calls)
 
     PWSCF        : 19m19.29s CPU    28m 1.65s WALL

 
   This run was terminated on:  23: 3:36  14Feb2020            

=------------------------------------------------------------------------------=
   JOB DONE.
=------------------------------------------------------------------------------=
