
     Program PWSCF v.6.3MaX starts on 14Feb2020 at 20:17:32 

     This program is part of the open-source Quantum ESPRESSO suite
     for quantum simulation of materials; please cite
         "P. Giannozzi et al., J. Phys.:Condens. Matter 21 395502 (2009);
         "P. Giannozzi et al., J. Phys.:Condens. Matter 29 465901 (2017);
          URL http://www.quantum-espresso.org", 
     in publications or presentations arising from this work. More details at
     http://www.quantum-espresso.org/quote

     Parallel version (MPI), running on     2 processors

     MPI processes distributed on     1 nodes
     R & G space division:  proc/nbgrp/npool/nimage =       2
     Waiting for input...
     Reading input from standard input

     Current dimensions of program PWSCF are:
     Max number of different atomic species (ntypx) = 10
     Max number of k-points (npk) =  40000
     Max angular momentum in pseudopotentials (lmaxx) =  3

     Subspace diagonalization in iterative solution of the eigenvalue problem:
     a serial algorithm will be used

 
     Parallelization info
     --------------------
     sticks:   dense  smooth     PW     G-vecs:    dense   smooth      PW
     Min        3392    3392    878               210674   210674   27756
     Max        3393    3393    879               210675   210675   27759
     Sum        6785    6785   1757               421349   421349   55515
 


     bravais-lattice index     =            0
     lattice parameter (alat)  =      20.6591  a.u.
     unit-cell volume          =    8817.2783 (a.u.)^3
     number of atoms/cell      =           64
     number of atomic types    =            1
     number of electrons       =       256.00
     number of Kohn-Sham states=          154
     kinetic-energy cutoff     =      50.0000  Ry
     charge density cutoff     =     200.0000  Ry
     convergence threshold     =      1.0E-08
     mixing beta               =       0.7000
     number of iterations used =            8  plain     mixing
     Exchange-correlation      = PBE ( 1  4  3  4 0 0)

     celldm(1)=  20.659106  celldm(2)=   0.000000  celldm(3)=   0.000000
     celldm(4)=   0.000000  celldm(5)=   0.000000  celldm(6)=   0.000000

     crystal axes: (cart. coord. in units of alat)
               a(1) = (   1.000000   0.000000   0.000000 )  
               a(2) = (   0.000000   1.000000   0.000000 )  
               a(3) = (   0.000000   0.000000   1.000000 )  

     reciprocal axes: (cart. coord. in units 2 pi/alat)
               b(1) = (  1.000000  0.000000  0.000000 )  
               b(2) = (  0.000000  1.000000  0.000000 )  
               b(3) = (  0.000000  0.000000  1.000000 )  


     PseudoPot. # 1 for Si read from file:
     ~/kedar/softwares/SSSP_precision_pseudos/Si.pbe-n-rrkjus_psl.1.0.0.UPF
     MD5 check sum: Not computed, couldn't open file
     Pseudo is Ultrasoft + core correction, Zval =  4.0
     Generated using "atomic" code by A. Dal Corso v.5.1
     Using radial grid of 1141 points,  6 beta functions with: 
                l(1) =   0
                l(2) =   0
                l(3) =   1
                l(4) =   1
                l(5) =   2
                l(6) =   2
     Q(r) pseudized with 0 coefficients 


     atomic species   valence    mass     pseudopotential
        Si             4.00    28.08550     Si( 1.00)

     No symmetry found



   Cartesian axes

     site n.     atom                  positions (alat units)
         1           Si  tau(   1) = (   0.4404043   0.4375000   0.4375000  )
         2           Si  tau(   2) = (   0.9375000   0.4375000   0.4375000  )
         3           Si  tau(   3) = (   0.4375000   0.9375000   0.4375000  )
         4           Si  tau(   4) = (   0.9375000   0.9375000   0.4375000  )
         5           Si  tau(   5) = (   0.4375000   0.4375000   0.9375000  )
         6           Si  tau(   6) = (   0.9375000   0.4375000   0.9375000  )
         7           Si  tau(   7) = (   0.4375000   0.9375000   0.9375000  )
         8           Si  tau(   8) = (   0.9375000   0.9375000   0.9375000  )
         9           Si  tau(   9) = (   0.4375000   0.1875000   0.1875000  )
        10           Si  tau(  10) = (   0.9375000   0.1875000   0.1875000  )
        11           Si  tau(  11) = (   0.4375000   0.6875000   0.1875000  )
        12           Si  tau(  12) = (   0.9375000   0.6875000   0.1875000  )
        13           Si  tau(  13) = (   0.4375000   0.1875000   0.6875000  )
        14           Si  tau(  14) = (   0.9375000   0.1875000   0.6875000  )
        15           Si  tau(  15) = (   0.4375000   0.6875000   0.6875000  )
        16           Si  tau(  16) = (   0.9375000   0.6875000   0.6875000  )
        17           Si  tau(  17) = (   0.1875000   0.4375000   0.1875000  )
        18           Si  tau(  18) = (   0.6875000   0.4375000   0.1875000  )
        19           Si  tau(  19) = (   0.1875000   0.9375000   0.1875000  )
        20           Si  tau(  20) = (   0.6875000   0.9375000   0.1875000  )
        21           Si  tau(  21) = (   0.1875000   0.4375000   0.6875000  )
        22           Si  tau(  22) = (   0.6875000   0.4375000   0.6875000  )
        23           Si  tau(  23) = (   0.1875000   0.9375000   0.6875000  )
        24           Si  tau(  24) = (   0.6875000   0.9375000   0.6875000  )
        25           Si  tau(  25) = (   0.1875000   0.1875000   0.4375000  )
        26           Si  tau(  26) = (   0.6875000   0.1875000   0.4375000  )
        27           Si  tau(  27) = (   0.1875000   0.6875000   0.4375000  )
        28           Si  tau(  28) = (   0.6875000   0.6875000   0.4375000  )
        29           Si  tau(  29) = (   0.1875000   0.1875000   0.9375000  )
        30           Si  tau(  30) = (   0.6875000   0.1875000   0.9375000  )
        31           Si  tau(  31) = (   0.1875000   0.6875000   0.9375000  )
        32           Si  tau(  32) = (   0.6875000   0.6875000   0.9375000  )
        33           Si  tau(  33) = (   0.0625000   0.0625000   0.0625000  )
        34           Si  tau(  34) = (   0.5625000   0.0625000   0.0625000  )
        35           Si  tau(  35) = (   0.0625000   0.5625000   0.0625000  )
        36           Si  tau(  36) = (   0.5625000   0.5625000   0.0625000  )
        37           Si  tau(  37) = (   0.0625000   0.0625000   0.5625000  )
        38           Si  tau(  38) = (   0.5625000   0.0625000   0.5625000  )
        39           Si  tau(  39) = (   0.0625000   0.5625000   0.5625000  )
        40           Si  tau(  40) = (   0.5625000   0.5625000   0.5625000  )
        41           Si  tau(  41) = (   0.0625000   0.3125000   0.3125000  )
        42           Si  tau(  42) = (   0.5625000   0.3125000   0.3125000  )
        43           Si  tau(  43) = (   0.0625000   0.8125000   0.3125000  )
        44           Si  tau(  44) = (   0.5625000   0.8125000   0.3125000  )
        45           Si  tau(  45) = (   0.0625000   0.3125000   0.8125000  )
        46           Si  tau(  46) = (   0.5625000   0.3125000   0.8125000  )
        47           Si  tau(  47) = (   0.0625000   0.8125000   0.8125000  )
        48           Si  tau(  48) = (   0.5625000   0.8125000   0.8125000  )
        49           Si  tau(  49) = (   0.3125000   0.0625000   0.3125000  )
        50           Si  tau(  50) = (   0.8125000   0.0654043   0.3125000  )
        51           Si  tau(  51) = (   0.3125000   0.5625000   0.3125000  )
        52           Si  tau(  52) = (   0.8125000   0.5625000   0.3125000  )
        53           Si  tau(  53) = (   0.3125000   0.0625000   0.8125000  )
        54           Si  tau(  54) = (   0.8125000   0.0625000   0.8125000  )
        55           Si  tau(  55) = (   0.3125000   0.5625000   0.8125000  )
        56           Si  tau(  56) = (   0.8125000   0.5625000   0.8125000  )
        57           Si  tau(  57) = (   0.3125000   0.3125000   0.0625000  )
        58           Si  tau(  58) = (   0.8125000   0.3125000   0.0625000  )
        59           Si  tau(  59) = (   0.3125000   0.8125000   0.0625000  )
        60           Si  tau(  60) = (   0.8125000   0.8125000   0.0625000  )
        61           Si  tau(  61) = (   0.3125000   0.3125000   0.5625000  )
        62           Si  tau(  62) = (   0.8125000   0.3125000   0.5625000  )
        63           Si  tau(  63) = (   0.3125000   0.8125000   0.5625000  )
        64           Si  tau(  64) = (   0.8125000   0.8125000   0.5625000  )

     number of k points=     4  gaussian smearing, width (Ry)=  0.0100
                       cart. coord. in units 2pi/alat
        k(    1) = (   0.2500000   0.2500000   0.2500000), wk =   0.5000000
        k(    2) = (  -0.2500000  -0.2500000   0.2500000), wk =   0.5000000
        k(    3) = (  -0.2500000   0.2500000  -0.2500000), wk =   0.5000000
        k(    4) = (   0.2500000  -0.2500000  -0.2500000), wk =   0.5000000

     Dense  grid:   421349 G-vectors     FFT dimensions: (  96,  96,  96)

     Estimated max dynamical RAM per process >       2.05 GB

     Estimated total dynamical RAM >       4.11 GB

     Check: negative/imaginary core charge=   -0.000001    0.000000

     Initial potential from superposition of free atoms

     starting charge  255.96421, renormalised to  256.00000
     Starting wfcs are  256 randomized atomic wfcs

     total cpu time spent up to now is       70.3 secs

     Self-consistent Calculation

     iteration #  1     ecut=    50.00 Ry     beta= 0.70
     Davidson diagonalization with overlap
     ethr =  1.00E-02,  avg # of iterations =  3.0

     Threshold (ethr) on eigenvalues was too large:
     Diagonalizing with lowered threshold

     Davidson diagonalization with overlap
     ethr =  6.78E-04,  avg # of iterations =  2.0

     total cpu time spent up to now is      293.2 secs

     total energy              =    -730.80280727 Ry
     Harris-Foulkes estimate   =    -731.20891089 Ry
     estimated scf accuracy    <       1.72049340 Ry

     iteration #  2     ecut=    50.00 Ry     beta= 0.70
     Davidson diagonalization with overlap
     ethr =  6.72E-04,  avg # of iterations =  1.0

     total cpu time spent up to now is      404.4 secs

     total energy              =    -730.86488129 Ry
     Harris-Foulkes estimate   =    -730.87085789 Ry
     estimated scf accuracy    <       0.08013571 Ry

     iteration #  3     ecut=    50.00 Ry     beta= 0.70
     Davidson diagonalization with overlap
     ethr =  3.13E-05,  avg # of iterations = 10.5

     total cpu time spent up to now is      605.6 secs

     total energy              =    -730.87932333 Ry
     Harris-Foulkes estimate   =    -730.88058672 Ry
     estimated scf accuracy    <       0.00276617 Ry

     iteration #  4     ecut=    50.00 Ry     beta= 0.70
     Davidson diagonalization with overlap
     ethr =  1.08E-06,  avg # of iterations =  6.8

     total cpu time spent up to now is      784.6 secs

     total energy              =    -730.87961561 Ry
     Harris-Foulkes estimate   =    -730.88062670 Ry
     estimated scf accuracy    <       0.00292108 Ry

     iteration #  5     ecut=    50.00 Ry     beta= 0.70
     Davidson diagonalization with overlap
     ethr =  1.08E-06,  avg # of iterations =  2.5

     total cpu time spent up to now is      918.3 secs

     total energy              =    -730.87998711 Ry
     Harris-Foulkes estimate   =    -730.88010214 Ry
     estimated scf accuracy    <       0.00034206 Ry

     iteration #  6     ecut=    50.00 Ry     beta= 0.70
     Davidson diagonalization with overlap
     ethr =  1.34E-07,  avg # of iterations =  3.0

     total cpu time spent up to now is     1052.6 secs

     total energy              =    -730.88001194 Ry
     Harris-Foulkes estimate   =    -730.88004233 Ry
     estimated scf accuracy    <       0.00007388 Ry

     iteration #  7     ecut=    50.00 Ry     beta= 0.70
     Davidson diagonalization with overlap
     ethr =  2.89E-08,  avg # of iterations =  2.0

     total cpu time spent up to now is     1185.1 secs

     total energy              =    -730.88002326 Ry
     Harris-Foulkes estimate   =    -730.88002401 Ry
     estimated scf accuracy    <       0.00000356 Ry

     iteration #  8     ecut=    50.00 Ry     beta= 0.70
     Davidson diagonalization with overlap
     ethr =  1.39E-09,  avg # of iterations =  3.0

     total cpu time spent up to now is     1367.8 secs

     total energy              =    -730.88002407 Ry
     Harris-Foulkes estimate   =    -730.88002448 Ry
     estimated scf accuracy    <       0.00000201 Ry

     iteration #  9     ecut=    50.00 Ry     beta= 0.70
     Davidson diagonalization with overlap
     ethr =  7.86E-10,  avg # of iterations =  2.0

     total cpu time spent up to now is     1523.6 secs

     total energy              =    -730.88002395 Ry
     Harris-Foulkes estimate   =    -730.88002425 Ry
     estimated scf accuracy    <       0.00000106 Ry

     iteration # 10     ecut=    50.00 Ry     beta= 0.70
     Davidson diagonalization with overlap
     ethr =  4.14E-10,  avg # of iterations =  1.0

     total cpu time spent up to now is     1670.2 secs

     total energy              =    -730.88002393 Ry
     Harris-Foulkes estimate   =    -730.88002401 Ry
     estimated scf accuracy    <       0.00000020 Ry

     iteration # 11     ecut=    50.00 Ry     beta= 0.70
     Davidson diagonalization with overlap
     ethr =  7.92E-11,  avg # of iterations =  3.0

     total cpu time spent up to now is     1846.8 secs

     total energy              =    -730.88002396 Ry
     Harris-Foulkes estimate   =    -730.88002397 Ry
     estimated scf accuracy    <       0.00000001 Ry

     iteration # 12     ecut=    50.00 Ry     beta= 0.70
     Davidson diagonalization with overlap
     ethr =  5.03E-12,  avg # of iterations =  3.0

     total cpu time spent up to now is     2025.1 secs

     End of self-consistent calculation

          k = 0.2500 0.2500 0.2500 ( 52563 PWs)   bands (ev):

    -5.6275  -5.1034  -5.0989  -5.0957  -4.6042  -4.5998  -4.5967  -4.1671
    -4.0714  -4.0666  -4.0640  -3.6591  -3.6547  -3.6527  -3.6495  -3.6488
    -3.6438  -3.4638  -3.4594  -3.4548  -2.9680  -2.9620  -2.9604  -2.5996
    -2.5943  -2.5893  -2.4334  -2.4291  -2.4280  -2.4240  -2.4234  -2.4181
    -0.8938  -0.8876  -0.8854  -0.8818  -0.8804  -0.8765  -0.7917  -0.7864
    -0.7811  -0.6736  -0.6681  -0.6620  -0.5900  -0.5817  -0.5745   0.1202
     0.1950   0.2003   0.2034   0.2082   0.2096   0.2110   1.0730   1.0796
     1.0846   1.4075   1.4122   1.4161   2.0168   2.0203   2.0217   2.0233
     2.0256   2.0268   2.0783   2.0819   2.0846   2.6302   2.6334   2.6362
     2.7306   2.7314   2.7360   2.7378   2.7402   2.7422   2.7863   2.7905
     2.7938   3.0934   3.0983   3.1005   3.1017   3.1036   3.1061   3.3624
     3.3643   3.3673   3.3754   3.3796   3.3832   3.7235   3.7278   3.7315
     3.7456   3.7494   3.7546   3.8292   3.8334   3.8349   4.0990   4.1036
     4.1068   4.1078   4.1099   4.1158   4.1428   4.1476   4.1498   4.4066
     4.4605   4.4638   4.4676   4.7035   4.7079   4.7104   4.7662   4.7721
     4.7783   4.9249   4.9337   5.2317   5.2374   5.2407   5.7122   5.7221
     6.9270   6.9297   6.9341   7.3666   7.3711   7.3739   7.5967   7.8527
     7.8563   7.8600   7.9815   7.9861   7.9905   8.1422   8.1444   8.1476
     8.1619   8.1640   8.1692   8.3891   8.3936   8.3956   8.3983   8.4010
     8.4034   8.4440

          k =-0.2500-0.2500 0.2500 ( 52563 PWs)   bands (ev):

    -5.6275  -5.1034  -5.0989  -5.0957  -4.6042  -4.5998  -4.5967  -4.1671
    -4.0714  -4.0666  -4.0640  -3.6591  -3.6547  -3.6527  -3.6495  -3.6488
    -3.6438  -3.4638  -3.4594  -3.4548  -2.9680  -2.9620  -2.9604  -2.5996
    -2.5943  -2.5893  -2.4334  -2.4291  -2.4280  -2.4240  -2.4234  -2.4181
    -0.8938  -0.8876  -0.8854  -0.8818  -0.8804  -0.8765  -0.7917  -0.7864
    -0.7811  -0.6736  -0.6681  -0.6620  -0.5900  -0.5817  -0.5745   0.1202
     0.1950   0.2003   0.2034   0.2082   0.2096   0.2110   1.0730   1.0796
     1.0846   1.4075   1.4122   1.4161   2.0168   2.0203   2.0217   2.0233
     2.0256   2.0268   2.0783   2.0819   2.0846   2.6302   2.6334   2.6362
     2.7306   2.7314   2.7360   2.7378   2.7402   2.7422   2.7863   2.7905
     2.7938   3.0934   3.0983   3.1005   3.1017   3.1036   3.1061   3.3624
     3.3643   3.3673   3.3754   3.3796   3.3832   3.7235   3.7278   3.7315
     3.7456   3.7494   3.7546   3.8292   3.8334   3.8349   4.0990   4.1036
     4.1068   4.1077   4.1099   4.1158   4.1428   4.1476   4.1498   4.4066
     4.4605   4.4638   4.4676   4.7035   4.7079   4.7104   4.7662   4.7721
     4.7783   4.9249   4.9337   5.2317   5.2374   5.2407   5.7122   5.7221
     6.9270   6.9297   6.9341   7.3666   7.3711   7.3739   7.5967   7.8527
     7.8563   7.8600   7.9815   7.9861   7.9905   8.1422   8.1444   8.1476
     8.1619   8.1640   8.1692   8.3891   8.3936   8.3956   8.3983   8.4010
     8.4034   8.4440

          k =-0.2500 0.2500-0.2500 ( 52563 PWs)   bands (ev):

    -5.6275  -5.1027  -5.1003  -5.0947  -4.6036  -4.6014  -4.5958  -4.1681
    -4.0715  -4.0686  -4.0631  -3.6571  -3.6548  -3.6542  -3.6509  -3.6453
    -3.6434  -3.4621  -3.4598  -3.4539  -2.9699  -2.9662  -2.9600  -2.5977
    -2.5961  -2.5882  -2.4323  -2.4304  -2.4280  -2.4257  -2.4214  -2.4164
    -0.8921  -0.8910  -0.8862  -0.8838  -0.8809  -0.8744  -0.7916  -0.7888
    -0.7814  -0.6743  -0.6689  -0.6662  -0.5825  -0.5784  -0.5721   0.1239
     0.1953   0.1963   0.2019   0.2046   0.2074   0.2128   1.0769   1.0826
     1.0851   1.4092   1.4115   1.4150   2.0174   2.0203   2.0212   2.0238
     2.0251   2.0263   2.0784   2.0786   2.0843   2.6330   2.6340   2.6385
     2.7277   2.7306   2.7359   2.7364   2.7394   2.7404   2.7848   2.7867
     2.7924   3.0960   3.0976   3.0994   3.1016   3.1046   3.1055   3.3617
     3.3644   3.3651   3.3752   3.3773   3.3812   3.7268   3.7290   3.7330
     3.7496   3.7507   3.7592   3.8272   3.8323   3.8343   4.1049   4.1062
     4.1071   4.1101   4.1114   4.1190   4.1407   4.1465   4.1495   4.4109
     4.4590   4.4626   4.4633   4.7005   4.7068   4.7083   4.7725   4.7778
     4.7809   4.9255   4.9306   5.2275   5.2358   5.2382   5.7119   5.7176
     6.9263   6.9275   6.9318   7.3629   7.3720   7.3744   7.5952   7.8494
     7.8560   7.8588   7.9827   7.9886   7.9909   8.1390   8.1464   8.1468
     8.1623   8.1649   8.1662   8.3912   8.3958   8.3971   8.4012   8.4019
     8.4046   8.4417

          k = 0.2500-0.2500-0.2500 ( 52563 PWs)   bands (ev):

    -5.6274  -5.1050  -5.0971  -5.0962  -4.6056  -4.5980  -4.5970  -4.1659
    -4.0725  -4.0648  -4.0636  -3.6656  -3.6517  -3.6507  -3.6493  -3.6484
    -3.6456  -3.4647  -3.4588  -3.4566  -2.9672  -2.9602  -2.9573  -2.6006
    -2.5928  -2.5909  -2.4381  -2.4262  -2.4261  -2.4252  -2.4222  -2.4201
    -0.8926  -0.8872  -0.8840  -0.8833  -0.8784  -0.8769  -0.7913  -0.7836
    -0.7817  -0.6700  -0.6675  -0.6614  -0.5949  -0.5824  -0.5817   0.1164
     0.1964   0.2028   0.2044   0.2062   0.2114   0.2154   1.0714   1.0773
     1.0813   1.4088   1.4124   1.4147   2.0170   2.0211   2.0218   2.0249
     2.0252   2.0256   2.0793   2.0832   2.0854   2.6285   2.6320   2.6335
     2.7318   2.7348   2.7362   2.7389   2.7414   2.7431   2.7888   2.7938
     2.7949   3.0930   3.0973   3.1002   3.1027   3.1032   3.1062   3.3638
     3.3653   3.3681   3.3773   3.3811   3.3841   3.7207   3.7280   3.7288
     3.7425   3.7474   3.7498   3.8311   3.8325   3.8372   4.0976   4.0995
     4.1032   4.1076   4.1081   4.1103   4.1454   4.1467   4.1519   4.4025
     4.4641   4.4648   4.4701   4.7065   4.7077   4.7136   4.7614   4.7693
     4.7713   4.9280   4.9330   5.2359   5.2372   5.2452   5.7167   5.7224
     6.9285   6.9323   6.9351   7.3679   7.3702   7.3758   7.5982   7.8549
     7.8575   7.8614   7.9813   7.9833   7.9893   8.1431   8.1442   8.1480
     8.1626   8.1649   8.1702   8.3870   8.3898   8.3961   8.3970   8.3985
     8.4018   8.4462

     the Fermi energy is     6.3201 ev

!    total energy              =    -730.88002396 Ry
     Harris-Foulkes estimate   =    -730.88002396 Ry
     estimated scf accuracy    <          2.5E-09 Ry

     The total energy is the sum of the following terms:

     one-electron contribution =     160.47272198 Ry
     hartree contribution      =      35.78741348 Ry
     xc contribution           =    -393.13398673 Ry
     ewald contribution        =    -534.00617270 Ry
     smearing contrib. (-TS)   =      -0.00000000 Ry

     convergence has been achieved in  12 iterations

     Forces acting on atoms (cartesian axes, Ry/au):

     atom    1 type  1   force =    -0.01608264    0.00002981   -0.00002993
     atom    2 type  1   force =    -0.00001308   -0.00001038   -0.00003711
     atom    3 type  1   force =     0.00001840   -0.00005658   -0.00005019
     atom    4 type  1   force =    -0.00251703    0.00384021   -0.00251154
     atom    5 type  1   force =     0.00002468   -0.00002009   -0.00003153
     atom    6 type  1   force =    -0.00003664    0.00002809   -0.00002559
     atom    7 type  1   force =    -0.00050260    0.00025475   -0.00002779
     atom    8 type  1   force =    -0.00002503   -0.00005656   -0.00003692
     atom    9 type  1   force =    -0.00049261    0.00005513    0.00006526
     atom   10 type  1   force =     0.00273801    0.00396821   -0.00272651
     atom   11 type  1   force =    -0.00049983    0.00013798   -0.00013742
     atom   12 type  1   force =     0.00003907   -0.00000163   -0.00004645
     atom   13 type  1   force =    -0.00049794    0.00014833    0.00008221
     atom   14 type  1   force =     0.00005253   -0.00006766   -0.00002839
     atom   15 type  1   force =    -0.00049813   -0.00013371   -0.00014466
     atom   16 type  1   force =     0.00002758    0.00001731   -0.00003447
     atom   17 type  1   force =     0.00025667   -0.00008210    0.00025350
     atom   18 type  1   force =     0.00027578   -0.00012424   -0.00019282
     atom   19 type  1   force =     0.00008064   -0.00006604   -0.00002592
     atom   20 type  1   force =     0.00255340    0.00382998    0.00258570
     atom   21 type  1   force =     0.00026098    0.00008863   -0.00019354
     atom   22 type  1   force =     0.00026705    0.00014321    0.00025629
     atom   23 type  1   force =     0.00007200    0.00026554    0.00010436
     atom   24 type  1   force =     0.00009406   -0.00004772   -0.00003859
     atom   25 type  1   force =     0.00019228    0.00016526   -0.00006035
     atom   26 type  1   force =    -0.00249725    0.00372816    0.00262052
     atom   27 type  1   force =     0.00020558   -0.00019748    0.00013619
     atom   28 type  1   force =     0.00020056    0.00021948    0.00015178
     atom   29 type  1   force =     0.00001578    0.00018212    0.00001842
     atom   30 type  1   force =    -0.00000493    0.00001653    0.00002796
     atom   31 type  1   force =     0.00001332    0.00005712    0.00004039
     atom   32 type  1   force =     0.00001636   -0.00004871    0.00003484
     atom   33 type  1   force =    -0.00013400   -0.00049880    0.00014532
     atom   34 type  1   force =     0.00014845   -0.00049829   -0.00008223
     atom   35 type  1   force =     0.00001660    0.00002784    0.00003499
     atom   36 type  1   force =    -0.00006726    0.00005275    0.00002793
     atom   37 type  1   force =     0.00013752   -0.00049969    0.00013699
     atom   38 type  1   force =     0.00005557   -0.00049247   -0.00006505
     atom   39 type  1   force =    -0.00000159    0.00003900    0.00004606
     atom   40 type  1   force =     0.00396817    0.00273761    0.00272778
     atom   41 type  1   force =     0.00021855    0.00019986   -0.00015200
     atom   42 type  1   force =     0.00372838   -0.00249841   -0.00262054
     atom   43 type  1   force =    -0.00019750    0.00020570   -0.00013699
     atom   44 type  1   force =     0.00016567    0.00019303    0.00006003
     atom   45 type  1   force =    -0.00004869    0.00001611   -0.00003497
     atom   46 type  1   force =     0.00001707   -0.00000514   -0.00002856
     atom   47 type  1   force =     0.00005676    0.00001380   -0.00003977
     atom   48 type  1   force =     0.00018191    0.00001598   -0.00001828
     atom   49 type  1   force =    -0.00005694    0.00001867    0.00005035
     atom   50 type  1   force =     0.00003043   -0.01608186    0.00003047
     atom   51 type  1   force =     0.00383920   -0.00251708    0.00251139
     atom   52 type  1   force =    -0.00000929   -0.00001281    0.00003602
     atom   53 type  1   force =     0.00025481   -0.00050316    0.00002751
     atom   54 type  1   force =    -0.00002041    0.00002478    0.00003129
     atom   55 type  1   force =    -0.00005618   -0.00002525    0.00003716
     atom   56 type  1   force =     0.00002794   -0.00003639    0.00002636
     atom   57 type  1   force =    -0.00004826    0.00009386    0.00003893
     atom   58 type  1   force =     0.00014385    0.00026745   -0.00025633
     atom   59 type  1   force =     0.00026505    0.00007208   -0.00010437
     atom   60 type  1   force =     0.00008940    0.00026091    0.00019382
     atom   61 type  1   force =     0.00382996    0.00255346   -0.00258577
     atom   62 type  1   force =    -0.00012445    0.00027481    0.00019233
     atom   63 type  1   force =    -0.00006580    0.00008147    0.00002588
     atom   64 type  1   force =    -0.00008193    0.00025724   -0.00025345

     Total force =     0.027350     Total SCF correction =     0.000089

     Writing output data file pwscf.save/
 
     init_run     :     42.54s CPU     69.62s WALL (       1 calls)
     electrons    :   1126.74s CPU   1954.91s WALL (       1 calls)
     forces       :     21.62s CPU     34.80s WALL (       1 calls)

     Called by init_run:
     wfcinit      :     40.81s CPU     66.35s WALL (       1 calls)
     potinit      :      0.34s CPU      0.48s WALL (       1 calls)
     hinit0       :      0.49s CPU      0.86s WALL (       1 calls)

     Called by electrons:
     c_bands      :    963.80s CPU   1653.06s WALL (      13 calls)
     sum_band     :    148.07s CPU    271.07s WALL (      13 calls)
     v_of_rho     :      3.79s CPU      6.37s WALL (      13 calls)
     newd         :     11.01s CPU     24.44s WALL (      13 calls)
     mix_rho      :      1.04s CPU      1.81s WALL (      13 calls)

     Called by c_bands:
     init_us_2    :     11.55s CPU     20.89s WALL (     112 calls)
     cegterg      :    872.65s CPU   1494.93s WALL (      52 calls)

     Called by sum_band:
     sum_band:bec :      0.06s CPU      0.07s WALL (      52 calls)
     addusdens    :     10.50s CPU     23.20s WALL (      13 calls)

     Called by *egterg:
     h_psi        :    634.56s CPU   1088.03s WALL (     227 calls)
     s_psi        :    126.90s CPU    208.57s WALL (     227 calls)
     g_psi        :      1.07s CPU      1.72s WALL (     171 calls)
     cdiaghg      :     11.92s CPU     20.76s WALL (     219 calls)

     Called by h_psi:
     h_psi:pot    :    632.59s CPU   1080.85s WALL (     227 calls)
     h_psi:calbec :    133.05s CPU    225.46s WALL (     227 calls)
     vloc_psi     :    372.11s CPU    645.01s WALL (     227 calls)
     add_vuspsi   :    127.43s CPU    210.38s WALL (     227 calls)

     General routines
     calbec       :    196.37s CPU    334.25s WALL (     295 calls)
     fft          :      3.89s CPU      6.50s WALL (     156 calls)
     ffts         :      0.19s CPU      0.30s WALL (      13 calls)
     fftw         :    378.01s CPU    688.01s WALL (   50850 calls)
 
     Parallel routines
     fft_scatt_xy :     69.69s CPU     92.65s WALL (   51019 calls)
     fft_scatt_yz :    126.31s CPU    340.22s WALL (   51019 calls)
 
     PWSCF        : 19m51.61s CPU    34m21.02s WALL

 
   This run was terminated on:  20:51:53  14Feb2020            

=------------------------------------------------------------------------------=
   JOB DONE.
=------------------------------------------------------------------------------=
