
     Program PWSCF v.6.3MaX starts on 14Feb2020 at 20:20: 1 

     This program is part of the open-source Quantum ESPRESSO suite
     for quantum simulation of materials; please cite
         "P. Giannozzi et al., J. Phys.:Condens. Matter 21 395502 (2009);
         "P. Giannozzi et al., J. Phys.:Condens. Matter 29 465901 (2017);
          URL http://www.quantum-espresso.org", 
     in publications or presentations arising from this work. More details at
     http://www.quantum-espresso.org/quote

     Parallel version (MPI), running on     2 processors

     MPI processes distributed on     1 nodes
     R & G space division:  proc/nbgrp/npool/nimage =       2
     Waiting for input...
     Reading input from standard input

     Current dimensions of program PWSCF are:
     Max number of different atomic species (ntypx) = 10
     Max number of k-points (npk) =  40000
     Max angular momentum in pseudopotentials (lmaxx) =  3

     Subspace diagonalization in iterative solution of the eigenvalue problem:
     a serial algorithm will be used

 
     Parallelization info
     --------------------
     sticks:   dense  smooth     PW     G-vecs:    dense   smooth      PW
     Min        3392    3392    878               210674   210674   27756
     Max        3393    3393    879               210675   210675   27759
     Sum        6785    6785   1757               421349   421349   55515
 


     bravais-lattice index     =            0
     lattice parameter (alat)  =      20.6591  a.u.
     unit-cell volume          =    8817.2783 (a.u.)^3
     number of atoms/cell      =           64
     number of atomic types    =            1
     number of electrons       =       256.00
     number of Kohn-Sham states=          154
     kinetic-energy cutoff     =      50.0000  Ry
     charge density cutoff     =     200.0000  Ry
     convergence threshold     =      1.0E-08
     mixing beta               =       0.7000
     number of iterations used =            8  plain     mixing
     Exchange-correlation      = PBE ( 1  4  3  4 0 0)

     celldm(1)=  20.659106  celldm(2)=   0.000000  celldm(3)=   0.000000
     celldm(4)=   0.000000  celldm(5)=   0.000000  celldm(6)=   0.000000

     crystal axes: (cart. coord. in units of alat)
               a(1) = (   1.000000   0.000000   0.000000 )  
               a(2) = (   0.000000   1.000000   0.000000 )  
               a(3) = (   0.000000   0.000000   1.000000 )  

     reciprocal axes: (cart. coord. in units 2 pi/alat)
               b(1) = (  1.000000  0.000000  0.000000 )  
               b(2) = (  0.000000  1.000000  0.000000 )  
               b(3) = (  0.000000  0.000000  1.000000 )  


     PseudoPot. # 1 for Si read from file:
     ~/kedar/softwares/SSSP_precision_pseudos/Si.pbe-n-rrkjus_psl.1.0.0.UPF
     MD5 check sum: Not computed, couldn't open file
     Pseudo is Ultrasoft + core correction, Zval =  4.0
     Generated using "atomic" code by A. Dal Corso v.5.1
     Using radial grid of 1141 points,  6 beta functions with: 
                l(1) =   0
                l(2) =   0
                l(3) =   1
                l(4) =   1
                l(5) =   2
                l(6) =   2
     Q(r) pseudized with 0 coefficients 


     atomic species   valence    mass     pseudopotential
        Si             4.00    28.08550     Si( 1.00)

     No symmetry found



   Cartesian axes

     site n.     atom                  positions (alat units)
         1           Si  tau(   1) = (   0.4404043   0.4375000   0.4375000  )
         2           Si  tau(   2) = (   0.9375000   0.4375000   0.4375000  )
         3           Si  tau(   3) = (   0.4375000   0.9375000   0.4375000  )
         4           Si  tau(   4) = (   0.9375000   0.9375000   0.4375000  )
         5           Si  tau(   5) = (   0.4375000   0.4375000   0.9375000  )
         6           Si  tau(   6) = (   0.9375000   0.4375000   0.9375000  )
         7           Si  tau(   7) = (   0.4375000   0.9375000   0.9375000  )
         8           Si  tau(   8) = (   0.9375000   0.9375000   0.9375000  )
         9           Si  tau(   9) = (   0.4375000   0.1875000   0.1875000  )
        10           Si  tau(  10) = (   0.9375000   0.1875000   0.1875000  )
        11           Si  tau(  11) = (   0.4375000   0.6875000   0.1875000  )
        12           Si  tau(  12) = (   0.9375000   0.6875000   0.1875000  )
        13           Si  tau(  13) = (   0.4375000   0.1875000   0.6875000  )
        14           Si  tau(  14) = (   0.9375000   0.1875000   0.6875000  )
        15           Si  tau(  15) = (   0.4375000   0.6875000   0.6875000  )
        16           Si  tau(  16) = (   0.9375000   0.6875000   0.6875000  )
        17           Si  tau(  17) = (   0.1875000   0.4375000   0.1875000  )
        18           Si  tau(  18) = (   0.6875000   0.4375000   0.1875000  )
        19           Si  tau(  19) = (   0.1875000   0.9375000   0.1875000  )
        20           Si  tau(  20) = (   0.6875000   0.9375000   0.1875000  )
        21           Si  tau(  21) = (   0.1875000   0.4375000   0.6875000  )
        22           Si  tau(  22) = (   0.6875000   0.4375000   0.6875000  )
        23           Si  tau(  23) = (   0.1875000   0.9375000   0.6875000  )
        24           Si  tau(  24) = (   0.6875000   0.9375000   0.6875000  )
        25           Si  tau(  25) = (   0.1875000   0.1875000   0.4375000  )
        26           Si  tau(  26) = (   0.6875000   0.1875000   0.4375000  )
        27           Si  tau(  27) = (   0.1875000   0.6875000   0.4375000  )
        28           Si  tau(  28) = (   0.6875000   0.6875000   0.4375000  )
        29           Si  tau(  29) = (   0.1875000   0.1875000   0.9375000  )
        30           Si  tau(  30) = (   0.6875000   0.1875000   0.9375000  )
        31           Si  tau(  31) = (   0.1875000   0.6875000   0.9375000  )
        32           Si  tau(  32) = (   0.6875000   0.6875000   0.9375000  )
        33           Si  tau(  33) = (   0.0625000   0.0625000   0.0625000  )
        34           Si  tau(  34) = (   0.5625000   0.0625000   0.0625000  )
        35           Si  tau(  35) = (   0.0625000   0.5625000   0.0625000  )
        36           Si  tau(  36) = (   0.5625000   0.5625000   0.0625000  )
        37           Si  tau(  37) = (   0.0625000   0.0625000   0.5625000  )
        38           Si  tau(  38) = (   0.5625000   0.0625000   0.5625000  )
        39           Si  tau(  39) = (   0.0625000   0.5625000   0.5625000  )
        40           Si  tau(  40) = (   0.5625000   0.5625000   0.5625000  )
        41           Si  tau(  41) = (   0.0625000   0.3125000   0.3125000  )
        42           Si  tau(  42) = (   0.5625000   0.3125000   0.3125000  )
        43           Si  tau(  43) = (   0.0625000   0.8125000   0.3125000  )
        44           Si  tau(  44) = (   0.5625000   0.8125000   0.3125000  )
        45           Si  tau(  45) = (   0.0625000   0.3125000   0.8125000  )
        46           Si  tau(  46) = (   0.5625000   0.3125000   0.8125000  )
        47           Si  tau(  47) = (   0.0625000   0.8125000   0.8125000  )
        48           Si  tau(  48) = (   0.5625000   0.8125000   0.8125000  )
        49           Si  tau(  49) = (   0.3125000   0.0625000   0.3125000  )
        50           Si  tau(  50) = (   0.8125000   0.0595957   0.3125000  )
        51           Si  tau(  51) = (   0.3125000   0.5625000   0.3125000  )
        52           Si  tau(  52) = (   0.8125000   0.5625000   0.3125000  )
        53           Si  tau(  53) = (   0.3125000   0.0625000   0.8125000  )
        54           Si  tau(  54) = (   0.8125000   0.0625000   0.8125000  )
        55           Si  tau(  55) = (   0.3125000   0.5625000   0.8125000  )
        56           Si  tau(  56) = (   0.8125000   0.5625000   0.8125000  )
        57           Si  tau(  57) = (   0.3125000   0.3125000   0.0625000  )
        58           Si  tau(  58) = (   0.8125000   0.3125000   0.0625000  )
        59           Si  tau(  59) = (   0.3125000   0.8125000   0.0625000  )
        60           Si  tau(  60) = (   0.8125000   0.8125000   0.0625000  )
        61           Si  tau(  61) = (   0.3125000   0.3125000   0.5625000  )
        62           Si  tau(  62) = (   0.8125000   0.3125000   0.5625000  )
        63           Si  tau(  63) = (   0.3125000   0.8125000   0.5625000  )
        64           Si  tau(  64) = (   0.8125000   0.8125000   0.5625000  )

     number of k points=     4  gaussian smearing, width (Ry)=  0.0100
                       cart. coord. in units 2pi/alat
        k(    1) = (   0.2500000   0.2500000   0.2500000), wk =   0.5000000
        k(    2) = (  -0.2500000  -0.2500000   0.2500000), wk =   0.5000000
        k(    3) = (  -0.2500000   0.2500000  -0.2500000), wk =   0.5000000
        k(    4) = (   0.2500000  -0.2500000  -0.2500000), wk =   0.5000000

     Dense  grid:   421349 G-vectors     FFT dimensions: (  96,  96,  96)

     Estimated max dynamical RAM per process >       2.05 GB

     Estimated total dynamical RAM >       4.11 GB

     Check: negative/imaginary core charge=   -0.000001    0.000000

     Initial potential from superposition of free atoms

     starting charge  255.96421, renormalised to  256.00000
     Starting wfcs are  256 randomized atomic wfcs

     total cpu time spent up to now is       72.0 secs

     Self-consistent Calculation

     iteration #  1     ecut=    50.00 Ry     beta= 0.70
     Davidson diagonalization with overlap
     ethr =  1.00E-02,  avg # of iterations =  3.0

     Threshold (ethr) on eigenvalues was too large:
     Diagonalizing with lowered threshold

     Davidson diagonalization with overlap
     ethr =  6.78E-04,  avg # of iterations =  2.0

     total cpu time spent up to now is      347.1 secs

     total energy              =    -730.80299457 Ry
     Harris-Foulkes estimate   =    -731.20917470 Ry
     estimated scf accuracy    <       1.72068840 Ry

     iteration #  2     ecut=    50.00 Ry     beta= 0.70
     Davidson diagonalization with overlap
     ethr =  6.72E-04,  avg # of iterations =  1.0

     total cpu time spent up to now is      459.7 secs

     total energy              =    -730.86497755 Ry
     Harris-Foulkes estimate   =    -730.87093749 Ry
     estimated scf accuracy    <       0.08011472 Ry

     iteration #  3     ecut=    50.00 Ry     beta= 0.70
     Davidson diagonalization with overlap
     ethr =  3.13E-05,  avg # of iterations = 10.5

     total cpu time spent up to now is      659.8 secs

     total energy              =    -730.87935789 Ry
     Harris-Foulkes estimate   =    -730.88057675 Ry
     estimated scf accuracy    <       0.00271159 Ry

     iteration #  4     ecut=    50.00 Ry     beta= 0.70
     Davidson diagonalization with overlap
     ethr =  1.06E-06,  avg # of iterations =  6.2

     total cpu time spent up to now is      833.8 secs

     total energy              =    -730.87974128 Ry
     Harris-Foulkes estimate   =    -730.88051783 Ry
     estimated scf accuracy    <       0.00218404 Ry

     iteration #  5     ecut=    50.00 Ry     beta= 0.70
     Davidson diagonalization with overlap
     ethr =  8.53E-07,  avg # of iterations =  2.0

     total cpu time spent up to now is      962.8 secs

     total energy              =    -730.87999813 Ry
     Harris-Foulkes estimate   =    -730.88008471 Ry
     estimated scf accuracy    <       0.00023703 Ry

     iteration #  6     ecut=    50.00 Ry     beta= 0.70
     Davidson diagonalization with overlap
     ethr =  9.26E-08,  avg # of iterations =  3.0

     total cpu time spent up to now is     1108.1 secs

     total energy              =    -730.88001536 Ry
     Harris-Foulkes estimate   =    -730.88004340 Ry
     estimated scf accuracy    <       0.00007607 Ry

     iteration #  7     ecut=    50.00 Ry     beta= 0.70
     Davidson diagonalization with overlap
     ethr =  2.97E-08,  avg # of iterations =  2.0

     total cpu time spent up to now is     1274.3 secs

     total energy              =    -730.88002653 Ry
     Harris-Foulkes estimate   =    -730.88002683 Ry
     estimated scf accuracy    <       0.00000251 Ry

     iteration #  8     ecut=    50.00 Ry     beta= 0.70
     Davidson diagonalization with overlap
     ethr =  9.82E-10,  avg # of iterations =  3.0

     total cpu time spent up to now is     1483.0 secs

     total energy              =    -730.88002719 Ry
     Harris-Foulkes estimate   =    -730.88002759 Ry
     estimated scf accuracy    <       0.00000179 Ry

     iteration #  9     ecut=    50.00 Ry     beta= 0.70
     Davidson diagonalization with overlap
     ethr =  6.98E-10,  avg # of iterations =  2.0

     total cpu time spent up to now is     1632.4 secs

     total energy              =    -730.88002710 Ry
     Harris-Foulkes estimate   =    -730.88002731 Ry
     estimated scf accuracy    <       0.00000068 Ry

     iteration # 10     ecut=    50.00 Ry     beta= 0.70
     Davidson diagonalization with overlap
     ethr =  2.65E-10,  avg # of iterations =  2.0

     total cpu time spent up to now is     1777.2 secs

     total energy              =    -730.88002710 Ry
     Harris-Foulkes estimate   =    -730.88002715 Ry
     estimated scf accuracy    <       0.00000013 Ry

     iteration # 11     ecut=    50.00 Ry     beta= 0.70
     Davidson diagonalization with overlap
     ethr =  5.07E-11,  avg # of iterations =  3.0

     total cpu time spent up to now is     1926.3 secs

     total energy              =    -730.88002712 Ry
     Harris-Foulkes estimate   =    -730.88002712 Ry
     estimated scf accuracy    <       0.00000002 Ry

     iteration # 12     ecut=    50.00 Ry     beta= 0.70
     Davidson diagonalization with overlap
     ethr =  6.05E-12,  avg # of iterations =  3.0

     total cpu time spent up to now is     2015.7 secs

     End of self-consistent calculation

          k = 0.2500 0.2500 0.2500 ( 52563 PWs)   bands (ev):

    -5.6274  -5.1023  -5.0997  -5.0963  -4.6030  -4.6004  -4.5972  -4.1660
    -4.0701  -4.0672  -4.0636  -3.6626  -3.6546  -3.6510  -3.6492  -3.6480
    -3.6461  -3.4642  -3.4593  -3.4565  -2.9654  -2.9617  -2.9577  -2.5986
    -2.5945  -2.5911  -2.4362  -2.4292  -2.4255  -2.4237  -2.4224  -2.4207
    -0.8920  -0.8891  -0.8827  -0.8818  -0.8792  -0.8777  -0.7887  -0.7857
    -0.7820  -0.6691  -0.6679  -0.6619  -0.5910  -0.5866  -0.5813   0.1164
     0.1984   0.2001   0.2063   0.2072   0.2101   0.2144   1.0715   1.0770
     1.0814   1.4091   1.4119   1.4150   2.0184   2.0210   2.0216   2.0229
     2.0243   2.0269   2.0802   2.0835   2.0849   2.6297   2.6309   2.6333
     2.7330   2.7351   2.7358   2.7386   2.7404   2.7428   2.7884   2.7931
     2.7964   3.0946   3.0978   3.1007   3.1016   3.1026   3.1053   3.3642
     3.3663   3.3672   3.3778   3.3805   3.3835   3.7234   3.7248   3.7287
     3.7435   3.7468   3.7501   3.8309   3.8331   3.8366   4.0963   4.1014
     4.1055   4.1059   4.1082   4.1089   4.1452   4.1473   4.1515   4.4027
     4.4639   4.4669   4.4679   4.7062   4.7085   4.7133   4.7631   4.7676
     4.7714   4.9280   4.9329   5.2354   5.2383   5.2446   5.7167   5.7224
     6.9286   6.9327   6.9345   7.3667   7.3700   7.3772   7.5982   7.8538
     7.8574   7.8625   7.9816   7.9838   7.9883   8.1425   8.1441   8.1490
     8.1628   8.1665   8.1685   8.3900   8.3901   8.3938   8.3961   8.3984
     8.4009   8.4469

          k =-0.2500-0.2500 0.2500 ( 52563 PWs)   bands (ev):

    -5.6275  -5.1024  -5.0990  -5.0963  -4.6033  -4.6001  -4.5974  -4.1682
    -4.0710  -4.0674  -4.0647  -3.6569  -3.6548  -3.6535  -3.6517  -3.6483
    -3.6404  -3.4622  -3.4592  -3.4544  -2.9694  -2.9652  -2.9615  -2.5975
    -2.5943  -2.5903  -2.4312  -2.4296  -2.4283  -2.4267  -2.4226  -2.4157
    -0.8911  -0.8893  -0.8864  -0.8854  -0.8795  -0.8767  -0.7909  -0.7866
    -0.7842  -0.6739  -0.6683  -0.6673  -0.5830  -0.5775  -0.5724   0.1238
     0.1953   0.1990   0.2018   0.2027   0.2089   0.2107   1.0767   1.0811
     1.0867   1.4089   1.4120   1.4147   2.0179   2.0203   2.0222   2.0234
     2.0237   2.0260   2.0782   2.0797   2.0838   2.6333   2.6356   2.6368
     2.7296   2.7316   2.7342   2.7369   2.7379   2.7397   2.7849   2.7873
     2.7921   3.0961   3.0986   3.0996   3.1005   3.1034   3.1066   3.3618
     3.3628   3.3655   3.3755   3.3783   3.3806   3.7269   3.7298   3.7321
     3.7495   3.7530   3.7570   3.8280   3.8317   3.8340   4.1054   4.1061
     4.1084   4.1088   4.1131   4.1171   4.1414   4.1457   4.1492   4.4109
     4.4598   4.4609   4.4641   4.7018   4.7059   4.7082   4.7724   4.7769
     4.7819   4.9254   4.9306   5.2289   5.2348   5.2379   5.7119   5.7176
     6.9258   6.9278   6.9320   7.3637   7.3712   7.3744   7.5952   7.8496
     7.8553   7.8589   7.9835   7.9881   7.9907   8.1397   8.1459   8.1474
     8.1624   8.1636   8.1670   8.3912   8.3955   8.3977   8.3999   8.4033
     8.4036   8.4422

          k =-0.2500 0.2500-0.2500 ( 52563 PWs)   bands (ev):

    -5.6275  -5.1019  -5.0994  -5.0967  -4.6028  -4.6003  -4.5977  -4.1672
    -4.0699  -4.0672  -4.0649  -3.6602  -3.6535  -3.6515  -3.6512  -3.6493
    -3.6427  -3.4635  -3.4595  -3.4551  -2.9661  -2.9636  -2.9607  -2.5982
    -2.5942  -2.5908  -2.4337  -2.4282  -2.4265  -2.4257  -2.4238  -2.4181
    -0.8915  -0.8875  -0.8845  -0.8837  -0.8810  -0.8775  -0.7899  -0.7863
    -0.7827  -0.6732  -0.6681  -0.6626  -0.5897  -0.5822  -0.5743   0.1201
     0.1973   0.2004   0.2042   0.2048   0.2089   0.2120   1.0726   1.0791
     1.0855   1.4076   1.4121   1.4162   2.0176   2.0201   2.0222   2.0227
     2.0249   2.0266   2.0794   2.0814   2.0843   2.6316   2.6333   2.6351
     2.7311   2.7332   2.7357   2.7372   2.7392   2.7412   2.7869   2.7903
     2.7938   3.0940   3.0990   3.1006   3.1007   3.1023   3.1072   3.3616
     3.3650   3.3666   3.3757   3.3800   3.3833   3.7240   3.7279   3.7309
     3.7473   3.7499   3.7525   3.8302   3.8324   3.8347   4.0996   4.1049
     4.1071   4.1073   4.1094   4.1149   4.1440   4.1466   4.1493   4.4066
     4.4607   4.4638   4.4673   4.7049   4.7073   4.7098   4.7659   4.7719
     4.7788   4.9249   4.9336   5.2334   5.2366   5.2398   5.7122   5.7221
     6.9264   6.9303   6.9340   7.3678   7.3705   7.3733   7.5967   7.8529
     7.8561   7.8596   7.9821   7.9860   7.9901   8.1423   8.1448   8.1476
     8.1611   8.1650   8.1687   8.3907   8.3917   8.3966   8.3970   8.4016
     8.4028   8.4445

          k = 0.2500-0.2500-0.2500 ( 52563 PWs)   bands (ev):

    -5.6275  -5.1004  -5.0994  -5.0983  -4.6012  -4.6003  -4.5993  -4.1672
    -4.0689  -4.0674  -4.0658  -3.6572  -3.6529  -3.6516  -3.6512  -3.6499
    -3.6457  -3.4635  -3.4593  -3.4551  -2.9660  -2.9634  -2.9610  -2.5982
    -2.5942  -2.5907  -2.4331  -2.4276  -2.4268  -2.4253  -2.4243  -2.4188
    -0.8935  -0.8866  -0.8845  -0.8834  -0.8823  -0.8753  -0.7900  -0.7861
    -0.7830  -0.6732  -0.6682  -0.6626  -0.5871  -0.5822  -0.5768   0.1201
     0.1961   0.2033   0.2044   0.2046   0.2060   0.2131   1.0733   1.0791
     1.0848   1.4076   1.4121   1.4162   2.0170   2.0210   2.0223   2.0226
     2.0241   2.0271   2.0794   2.0815   2.0845   2.6310   2.6331   2.6356
     2.7306   2.7326   2.7362   2.7367   2.7399   2.7417   2.7861   2.7901
     2.7948   3.0958   3.0981   3.1003   3.1009   3.1032   3.1053   3.3631
     3.3649   3.3666   3.3753   3.3791   3.3829   3.7252   3.7281   3.7291
     3.7457   3.7499   3.7545   3.8298   3.8324   3.8353   4.0986   4.1061
     4.1070   4.1073   4.1082   4.1156   4.1436   4.1465   4.1501   4.4068
     4.4616   4.4640   4.4660   4.7042   4.7073   4.7104   4.7674   4.7719
     4.7774   4.9249   4.9336   5.2325   5.2364   5.2409   5.7122   5.7221
     6.9270   6.9300   6.9337   7.3654   7.3706   7.3756   7.5967   7.8515
     7.8563   7.8611   7.9819   7.9861   7.9899   8.1409   8.1451   8.1485
     8.1628   8.1653   8.1670   8.3907   8.3934   8.3968   8.3970   8.4002
     8.4019   8.4446

     the Fermi energy is     6.3207 ev

!    total energy              =    -730.88002712 Ry
     Harris-Foulkes estimate   =    -730.88002712 Ry
     estimated scf accuracy    <          3.9E-09 Ry

     The total energy is the sum of the following terms:

     one-electron contribution =     160.47295493 Ry
     hartree contribution      =      35.78730331 Ry
     xc contribution           =    -393.13399354 Ry
     ewald contribution        =    -534.00629182 Ry
     smearing contrib. (-TS)   =      -0.00000000 Ry

     convergence has been achieved in  12 iterations

     Forces acting on atoms (cartesian axes, Ry/au):

     atom    1 type  1   force =    -0.01602795   -0.00002937    0.00002856
     atom    2 type  1   force =     0.00006272    0.00001036    0.00003598
     atom    3 type  1   force =     0.00009309    0.00005893    0.00004880
     atom    4 type  1   force =     0.00272927   -0.00395825    0.00273711
     atom    5 type  1   force =     0.00008624    0.00001979    0.00002975
     atom    6 type  1   force =     0.00002016   -0.00002646    0.00002578
     atom    7 type  1   force =    -0.00044708   -0.00025770    0.00002864
     atom    8 type  1   force =     0.00007575    0.00005801    0.00003782
     atom    9 type  1   force =    -0.00056718    0.00017075    0.00016521
     atom   10 type  1   force =    -0.00250836   -0.00382904    0.00252100
     atom   11 type  1   force =    -0.00055304    0.00008181   -0.00008111
     atom   12 type  1   force =    -0.00003393    0.00001840    0.00002818
     atom   13 type  1   force =    -0.00055342   -0.00036439    0.00013787
     atom   14 type  1   force =    -0.00004795    0.00004729    0.00004492
     atom   15 type  1   force =    -0.00056006   -0.00009545   -0.00008366
     atom   16 type  1   force =    -0.00002849   -0.00003744    0.00001672
     atom   17 type  1   force =     0.00020496   -0.00013622    0.00019866
     atom   18 type  1   force =     0.00020166   -0.00010390   -0.00026738
     atom   19 type  1   force =     0.00000613    0.00004916   -0.00012579
     atom   20 type  1   force =    -0.00269216   -0.00396872   -0.00266011
     atom   21 type  1   force =     0.00020074    0.00012872   -0.00025618
     atom   22 type  1   force =     0.00020937    0.00008834    0.00020433
     atom   23 type  1   force =     0.00001558   -0.00024851    0.00004754
     atom   24 type  1   force =    -0.00000466    0.00006890   -0.00011390
     atom   25 type  1   force =     0.00026656    0.00028180   -0.00016068
     atom   26 type  1   force =     0.00274687   -0.00406843   -0.00262335
     atom   27 type  1   force =     0.00025665   -0.00025384    0.00008011
     atom   28 type  1   force =     0.00027525    0.00023989    0.00007790
     atom   29 type  1   force =     0.00007207   -0.00033126   -0.00003710
     atom   30 type  1   force =     0.00009374    0.00013258   -0.00004656
     atom   31 type  1   force =     0.00007404    0.00009671   -0.00001973
     atom   32 type  1   force =     0.00007328   -0.00010506   -0.00001731
     atom   33 type  1   force =     0.00009070    0.00055607   -0.00007853
     atom   34 type  1   force =     0.00037239    0.00055802    0.00014228
     atom   35 type  1   force =     0.00003565    0.00002503    0.00001708
     atom   36 type  1   force =    -0.00004928    0.00004807    0.00004649
     atom   37 type  1   force =    -0.00008811    0.00055572   -0.00008820
     atom   38 type  1   force =    -0.00016819    0.00056413    0.00015914
     atom   39 type  1   force =    -0.00001966    0.00003515    0.00002602
     atom   40 type  1   force =     0.00394965    0.00273275    0.00274690
     atom   41 type  1   force =    -0.00023476   -0.00026736    0.00007375
     atom   42 type  1   force =     0.00418309   -0.00296838   -0.00284615
     atom   43 type  1   force =     0.00025599   -0.00026355    0.00008715
     atom   44 type  1   force =    -0.00028816   -0.00027458   -0.00016414
     atom   45 type  1   force =     0.00010387   -0.00007110   -0.00001611
     atom   46 type  1   force =    -0.00013603   -0.00009281   -0.00004778
     atom   47 type  1   force =    -0.00009621   -0.00007462   -0.00002097
     atom   48 type  1   force =     0.00033426   -0.00007239   -0.00003770
     atom   49 type  1   force =    -0.00005721   -0.00009160    0.00005042
     atom   50 type  1   force =     0.00002762    0.01602909    0.00002954
     atom   51 type  1   force =     0.00383755   -0.00250385    0.00250939
     atom   52 type  1   force =    -0.00000801   -0.00006094    0.00003630
     atom   53 type  1   force =     0.00025540    0.00044896    0.00002724
     atom   54 type  1   force =    -0.00002048   -0.00008574    0.00002940
     atom   55 type  1   force =    -0.00005577   -0.00007710    0.00003655
     atom   56 type  1   force =     0.00002815   -0.00002268    0.00002660
     atom   57 type  1   force =    -0.00006644    0.00000612   -0.00011313
     atom   58 type  1   force =    -0.00008105   -0.00020050    0.00019831
     atom   59 type  1   force =     0.00024506   -0.00001685    0.00004913
     atom   60 type  1   force =    -0.00013415   -0.00020735   -0.00025924
     atom   61 type  1   force =     0.00384784    0.00246717   -0.00243371
     atom   62 type  1   force =     0.00010046   -0.00019466   -0.00026144
     atom   63 type  1   force =    -0.00004776   -0.00000693   -0.00012661
     atom   64 type  1   force =     0.00014374   -0.00021071    0.00019997

     Total force =     0.027530     Total SCF correction =     0.000115

     Writing output data file pwscf.save/
 
     init_run     :     43.17s CPU     71.33s WALL (       1 calls)
     electrons    :   1126.05s CPU   1943.80s WALL (       1 calls)
     forces       :     20.21s CPU     20.91s WALL (       1 calls)

     Called by init_run:
     wfcinit      :     41.43s CPU     67.91s WALL (       1 calls)
     potinit      :      0.36s CPU      0.68s WALL (       1 calls)
     hinit0       :      0.45s CPU      0.80s WALL (       1 calls)

     Called by electrons:
     c_bands      :    962.56s CPU   1654.85s WALL (      13 calls)
     sum_band     :    148.98s CPU    259.53s WALL (      13 calls)
     v_of_rho     :      3.53s CPU      5.77s WALL (      13 calls)
     newd         :     10.98s CPU     23.76s WALL (      13 calls)
     mix_rho      :      1.00s CPU      1.91s WALL (      13 calls)

     Called by c_bands:
     init_us_2    :     11.81s CPU     20.19s WALL (     112 calls)
     cegterg      :    869.36s CPU   1494.85s WALL (      52 calls)

     Called by sum_band:
     sum_band:bec :      0.07s CPU      0.07s WALL (      52 calls)
     addusdens    :     10.69s CPU     24.18s WALL (      13 calls)

     Called by *egterg:
     h_psi        :    634.85s CPU   1092.73s WALL (     227 calls)
     s_psi        :    125.58s CPU    208.35s WALL (     227 calls)
     g_psi        :      1.12s CPU      1.85s WALL (     171 calls)
     cdiaghg      :     11.70s CPU     19.56s WALL (     219 calls)

     Called by h_psi:
     h_psi:pot    :    632.77s CPU   1085.64s WALL (     227 calls)
     h_psi:calbec :    133.20s CPU    225.05s WALL (     227 calls)
     vloc_psi     :    373.48s CPU    649.55s WALL (     227 calls)
     add_vuspsi   :    126.09s CPU    211.04s WALL (     227 calls)

     General routines
     calbec       :    195.38s CPU    320.90s WALL (     295 calls)
     fft          :      3.20s CPU      5.33s WALL (     156 calls)
     ffts         :      0.18s CPU      0.30s WALL (      13 calls)
     fftw         :    379.42s CPU    685.78s WALL (   50694 calls)
 
     Parallel routines
     fft_scatt_xy :     68.74s CPU     91.66s WALL (   50863 calls)
     fft_scatt_yz :    126.71s CPU    337.78s WALL (   50863 calls)
 
     PWSCF        : 19m50.17s CPU    33m57.27s WALL

 
   This run was terminated on:  20:53:59  14Feb2020            

=------------------------------------------------------------------------------=
   JOB DONE.
=------------------------------------------------------------------------------=
