
     Program PWSCF v.6.3MaX starts on 14Feb2020 at 16: 3:45 

     This program is part of the open-source Quantum ESPRESSO suite
     for quantum simulation of materials; please cite
         "P. Giannozzi et al., J. Phys.:Condens. Matter 21 395502 (2009);
         "P. Giannozzi et al., J. Phys.:Condens. Matter 29 465901 (2017);
          URL http://www.quantum-espresso.org", 
     in publications or presentations arising from this work. More details at
     http://www.quantum-espresso.org/quote

     Parallel version (MPI), running on     2 processors

     MPI processes distributed on     1 nodes
     R & G space division:  proc/nbgrp/npool/nimage =       2
     Waiting for input...
     Reading input from standard input

     Current dimensions of program PWSCF are:
     Max number of different atomic species (ntypx) = 10
     Max number of k-points (npk) =  40000
     Max angular momentum in pseudopotentials (lmaxx) =  3

     Subspace diagonalization in iterative solution of the eigenvalue problem:
     a serial algorithm will be used

 
     Parallelization info
     --------------------
     sticks:   dense  smooth     PW     G-vecs:    dense   smooth      PW
     Min        3392    3392    878               210674   210674   27756
     Max        3393    3393    879               210675   210675   27759
     Sum        6785    6785   1757               421349   421349   55515
 


     bravais-lattice index     =            0
     lattice parameter (alat)  =      20.6591  a.u.
     unit-cell volume          =    8817.2783 (a.u.)^3
     number of atoms/cell      =           64
     number of atomic types    =            1
     number of electrons       =       256.00
     number of Kohn-Sham states=          154
     kinetic-energy cutoff     =      50.0000  Ry
     charge density cutoff     =     200.0000  Ry
     convergence threshold     =      1.0E-08
     mixing beta               =       0.7000
     number of iterations used =            8  plain     mixing
     Exchange-correlation      = PBE ( 1  4  3  4 0 0)

     celldm(1)=  20.659106  celldm(2)=   0.000000  celldm(3)=   0.000000
     celldm(4)=   0.000000  celldm(5)=   0.000000  celldm(6)=   0.000000

     crystal axes: (cart. coord. in units of alat)
               a(1) = (   1.000000   0.000000   0.000000 )  
               a(2) = (   0.000000   1.000000   0.000000 )  
               a(3) = (   0.000000   0.000000   1.000000 )  

     reciprocal axes: (cart. coord. in units 2 pi/alat)
               b(1) = (  1.000000  0.000000  0.000000 )  
               b(2) = (  0.000000  1.000000  0.000000 )  
               b(3) = (  0.000000  0.000000  1.000000 )  


     PseudoPot. # 1 for Si read from file:
     ~/kedar/softwares/SSSP_precision_pseudos/Si.pbe-n-rrkjus_psl.1.0.0.UPF
     MD5 check sum: Not computed, couldn't open file
     Pseudo is Ultrasoft + core correction, Zval =  4.0
     Generated using "atomic" code by A. Dal Corso v.5.1
     Using radial grid of 1141 points,  6 beta functions with: 
                l(1) =   0
                l(2) =   0
                l(3) =   1
                l(4) =   1
                l(5) =   2
                l(6) =   2
     Q(r) pseudized with 0 coefficients 


     atomic species   valence    mass     pseudopotential
        Si             4.00    28.08550     Si( 1.00)

     No symmetry found



   Cartesian axes

     site n.     atom                  positions (alat units)
         1           Si  tau(   1) = (   0.4404043   0.4375000   0.4375000  )
         2           Si  tau(   2) = (   0.9375000   0.4375000   0.4375000  )
         3           Si  tau(   3) = (   0.4375000   0.9375000   0.4375000  )
         4           Si  tau(   4) = (   0.9375000   0.9375000   0.4375000  )
         5           Si  tau(   5) = (   0.4375000   0.4375000   0.9375000  )
         6           Si  tau(   6) = (   0.9375000   0.4375000   0.9375000  )
         7           Si  tau(   7) = (   0.4375000   0.9375000   0.9375000  )
         8           Si  tau(   8) = (   0.9375000   0.9375000   0.9375000  )
         9           Si  tau(   9) = (   0.4375000   0.1875000   0.1875000  )
        10           Si  tau(  10) = (   0.9375000   0.1875000   0.1875000  )
        11           Si  tau(  11) = (   0.4375000   0.6875000   0.1875000  )
        12           Si  tau(  12) = (   0.9375000   0.6875000   0.1875000  )
        13           Si  tau(  13) = (   0.4375000   0.1875000   0.6875000  )
        14           Si  tau(  14) = (   0.9375000   0.1875000   0.6875000  )
        15           Si  tau(  15) = (   0.4375000   0.6875000   0.6875000  )
        16           Si  tau(  16) = (   0.9375000   0.6875000   0.6875000  )
        17           Si  tau(  17) = (   0.1875000   0.4375000   0.1875000  )
        18           Si  tau(  18) = (   0.6875000   0.4375000   0.1875000  )
        19           Si  tau(  19) = (   0.1875000   0.9375000   0.1875000  )
        20           Si  tau(  20) = (   0.6875000   0.9375000   0.1875000  )
        21           Si  tau(  21) = (   0.1875000   0.4375000   0.6875000  )
        22           Si  tau(  22) = (   0.6875000   0.4375000   0.6875000  )
        23           Si  tau(  23) = (   0.1875000   0.9375000   0.6875000  )
        24           Si  tau(  24) = (   0.6875000   0.9375000   0.6875000  )
        25           Si  tau(  25) = (   0.1875000   0.1875000   0.4375000  )
        26           Si  tau(  26) = (   0.6875000   0.1875000   0.4375000  )
        27           Si  tau(  27) = (   0.1875000   0.6875000   0.4375000  )
        28           Si  tau(  28) = (   0.6875000   0.6875000   0.4375000  )
        29           Si  tau(  29) = (   0.1875000   0.1875000   0.9375000  )
        30           Si  tau(  30) = (   0.6875000   0.1875000   0.9375000  )
        31           Si  tau(  31) = (   0.1875000   0.6875000   0.9375000  )
        32           Si  tau(  32) = (   0.6875000   0.6875000   0.9375000  )
        33           Si  tau(  33) = (   0.0625000   0.0625000   0.0625000  )
        34           Si  tau(  34) = (   0.5625000   0.0625000   0.0625000  )
        35           Si  tau(  35) = (   0.0625000   0.5625000   0.0625000  )
        36           Si  tau(  36) = (   0.5654043   0.5625000   0.0625000  )
        37           Si  tau(  37) = (   0.0625000   0.0625000   0.5625000  )
        38           Si  tau(  38) = (   0.5625000   0.0625000   0.5625000  )
        39           Si  tau(  39) = (   0.0625000   0.5625000   0.5625000  )
        40           Si  tau(  40) = (   0.5625000   0.5625000   0.5625000  )
        41           Si  tau(  41) = (   0.0625000   0.3125000   0.3125000  )
        42           Si  tau(  42) = (   0.5625000   0.3125000   0.3125000  )
        43           Si  tau(  43) = (   0.0625000   0.8125000   0.3125000  )
        44           Si  tau(  44) = (   0.5625000   0.8125000   0.3125000  )
        45           Si  tau(  45) = (   0.0625000   0.3125000   0.8125000  )
        46           Si  tau(  46) = (   0.5625000   0.3125000   0.8125000  )
        47           Si  tau(  47) = (   0.0625000   0.8125000   0.8125000  )
        48           Si  tau(  48) = (   0.5625000   0.8125000   0.8125000  )
        49           Si  tau(  49) = (   0.3125000   0.0625000   0.3125000  )
        50           Si  tau(  50) = (   0.8125000   0.0625000   0.3125000  )
        51           Si  tau(  51) = (   0.3125000   0.5625000   0.3125000  )
        52           Si  tau(  52) = (   0.8125000   0.5625000   0.3125000  )
        53           Si  tau(  53) = (   0.3125000   0.0625000   0.8125000  )
        54           Si  tau(  54) = (   0.8125000   0.0625000   0.8125000  )
        55           Si  tau(  55) = (   0.3125000   0.5625000   0.8125000  )
        56           Si  tau(  56) = (   0.8125000   0.5625000   0.8125000  )
        57           Si  tau(  57) = (   0.3125000   0.3125000   0.0625000  )
        58           Si  tau(  58) = (   0.8125000   0.3125000   0.0625000  )
        59           Si  tau(  59) = (   0.3125000   0.8125000   0.0625000  )
        60           Si  tau(  60) = (   0.8125000   0.8125000   0.0625000  )
        61           Si  tau(  61) = (   0.3125000   0.3125000   0.5625000  )
        62           Si  tau(  62) = (   0.8125000   0.3125000   0.5625000  )
        63           Si  tau(  63) = (   0.3125000   0.8125000   0.5625000  )
        64           Si  tau(  64) = (   0.8125000   0.8125000   0.5625000  )

     number of k points=     4  gaussian smearing, width (Ry)=  0.0100
                       cart. coord. in units 2pi/alat
        k(    1) = (   0.2500000   0.2500000   0.2500000), wk =   0.5000000
        k(    2) = (  -0.2500000  -0.2500000   0.2500000), wk =   0.5000000
        k(    3) = (  -0.2500000   0.2500000  -0.2500000), wk =   0.5000000
        k(    4) = (   0.2500000  -0.2500000  -0.2500000), wk =   0.5000000

     Dense  grid:   421349 G-vectors     FFT dimensions: (  96,  96,  96)

     Estimated max dynamical RAM per process >       2.05 GB

     Estimated total dynamical RAM >       4.11 GB

     Check: negative/imaginary core charge=   -0.000001    0.000000

     Initial potential from superposition of free atoms

     starting charge  255.96421, renormalised to  256.00000
     Starting wfcs are  256 randomized atomic wfcs

     total cpu time spent up to now is      110.7 secs

     Self-consistent Calculation

     iteration #  1     ecut=    50.00 Ry     beta= 0.70
     Davidson diagonalization with overlap
     ethr =  1.00E-02,  avg # of iterations =  3.0

     Threshold (ethr) on eigenvalues was too large:
     Diagonalizing with lowered threshold

     Davidson diagonalization with overlap
     ethr =  6.78E-04,  avg # of iterations =  2.0

     total cpu time spent up to now is      542.9 secs

     total energy              =    -730.80279267 Ry
     Harris-Foulkes estimate   =    -731.20889976 Ry
     estimated scf accuracy    <       1.72049282 Ry

     iteration #  2     ecut=    50.00 Ry     beta= 0.70
     Davidson diagonalization with overlap
     ethr =  6.72E-04,  avg # of iterations =  1.0

     total cpu time spent up to now is      688.3 secs

     total energy              =    -730.86487369 Ry
     Harris-Foulkes estimate   =    -730.87084784 Ry
     estimated scf accuracy    <       0.08013442 Ry

     iteration #  3     ecut=    50.00 Ry     beta= 0.70
     Davidson diagonalization with overlap
     ethr =  3.13E-05,  avg # of iterations = 10.5

     total cpu time spent up to now is      889.6 secs

     total energy              =    -730.87931916 Ry
     Harris-Foulkes estimate   =    -730.88058767 Ry
     estimated scf accuracy    <       0.00277160 Ry

     iteration #  4     ecut=    50.00 Ry     beta= 0.70
     Davidson diagonalization with overlap
     ethr =  1.08E-06,  avg # of iterations =  4.5

     total cpu time spent up to now is     1076.4 secs

     total energy              =    -730.87962515 Ry
     Harris-Foulkes estimate   =    -730.88063582 Ry
     estimated scf accuracy    <       0.00291321 Ry

     iteration #  5     ecut=    50.00 Ry     beta= 0.70
     Davidson diagonalization with overlap
     ethr =  1.08E-06,  avg # of iterations =  2.0

     total cpu time spent up to now is     1240.9 secs

     total energy              =    -730.87998825 Ry
     Harris-Foulkes estimate   =    -730.88009109 Ry
     estimated scf accuracy    <       0.00029768 Ry

     iteration #  6     ecut=    50.00 Ry     beta= 0.70
     Davidson diagonalization with overlap
     ethr =  1.16E-07,  avg # of iterations =  3.0

     total cpu time spent up to now is     1339.6 secs

     total energy              =    -730.88000974 Ry
     Harris-Foulkes estimate   =    -730.88004144 Ry
     estimated scf accuracy    <       0.00008079 Ry

     iteration #  7     ecut=    50.00 Ry     beta= 0.70
     Davidson diagonalization with overlap
     ethr =  3.16E-08,  avg # of iterations =  2.0

     total cpu time spent up to now is     1420.9 secs

     total energy              =    -730.88002144 Ry
     Harris-Foulkes estimate   =    -730.88002183 Ry
     estimated scf accuracy    <       0.00000281 Ry

     iteration #  8     ecut=    50.00 Ry     beta= 0.70
     Davidson diagonalization with overlap
     ethr =  1.10E-09,  avg # of iterations =  3.0

     total cpu time spent up to now is     1516.7 secs

     total energy              =    -730.88002209 Ry
     Harris-Foulkes estimate   =    -730.88002251 Ry
     estimated scf accuracy    <       0.00000189 Ry

     iteration #  9     ecut=    50.00 Ry     beta= 0.70
     Davidson diagonalization with overlap
     ethr =  7.40E-10,  avg # of iterations =  2.0

     total cpu time spent up to now is     1593.7 secs

     total energy              =    -730.88002200 Ry
     Harris-Foulkes estimate   =    -730.88002225 Ry
     estimated scf accuracy    <       0.00000086 Ry

     iteration # 10     ecut=    50.00 Ry     beta= 0.70
     Davidson diagonalization with overlap
     ethr =  3.37E-10,  avg # of iterations =  1.0

     total cpu time spent up to now is     1665.0 secs

     total energy              =    -730.88002199 Ry
     Harris-Foulkes estimate   =    -730.88002206 Ry
     estimated scf accuracy    <       0.00000017 Ry

     iteration # 11     ecut=    50.00 Ry     beta= 0.70
     Davidson diagonalization with overlap
     ethr =  6.78E-11,  avg # of iterations =  3.0

     total cpu time spent up to now is     1773.7 secs

     total energy              =    -730.88002201 Ry
     Harris-Foulkes estimate   =    -730.88002202 Ry
     estimated scf accuracy    <       0.00000002 Ry

     iteration # 12     ecut=    50.00 Ry     beta= 0.70
     Davidson diagonalization with overlap
     ethr =  5.87E-12,  avg # of iterations =  3.0

     total cpu time spent up to now is     1911.7 secs

     End of self-consistent calculation

          k = 0.2500 0.2500 0.2500 ( 52563 PWs)   bands (ev):

    -5.6275  -5.1030  -5.0993  -5.0957  -4.6039  -4.6002  -4.5966  -4.1672
    -4.0709  -4.0673  -4.0637  -3.6589  -3.6537  -3.6519  -3.6509  -3.6490
    -3.6439  -3.4618  -3.4593  -3.4569  -2.9674  -2.9635  -2.9595  -2.5994
    -2.5944  -2.5894  -2.4335  -2.4282  -2.4261  -2.4260  -2.4238  -2.4184
    -0.8939  -0.8871  -0.8845  -0.8838  -0.8812  -0.8754  -0.7922  -0.7863
    -0.7804  -0.6708  -0.6682  -0.6650  -0.5895  -0.5822  -0.5743   0.1202
     0.1954   0.1999   0.2039   0.2052   0.2095   0.2137   1.0719   1.0791
     1.0862   1.4098   1.4120   1.4141   2.0178   2.0203   2.0216   2.0232
     2.0244   2.0266   2.0794   2.0818   2.0842   2.6306   2.6333   2.6358
     2.7305   2.7319   2.7358   2.7372   2.7401   2.7419   2.7873   2.7904
     2.7938   3.0946   3.0976   3.1000   3.1012   3.1037   3.1065   3.3641
     3.3648   3.3651   3.3774   3.3796   3.3810   3.7233   3.7281   3.7318
     3.7471   3.7496   3.7530   3.8294   3.8324   3.8354   4.1004   4.1042
     4.1068   4.1075   4.1098   4.1139   4.1432   4.1465   4.1502   4.4067
     4.4635   4.4638   4.4644   4.7040   4.7072   4.7106   4.7659   4.7719
     4.7790   4.9293   4.9294   5.2324   5.2365   5.2410   5.7171   5.7172
     6.9297   6.9303   6.9307   7.3649   7.3706   7.3761   7.5967   7.8517
     7.8564   7.8607   7.9828   7.9862   7.9892   8.1409   8.1449   8.1482
     8.1648   8.1649   8.1657   8.3897   8.3916   8.3968   8.3970   8.4017
     8.4036   8.4441

          k =-0.2500-0.2500 0.2500 ( 52563 PWs)   bands (ev):

    -5.6275  -5.1035  -5.0992  -5.0953  -4.6043  -4.6002  -4.5962  -4.1671
    -4.0717  -4.0673  -4.0630  -3.6613  -3.6542  -3.6520  -3.6506  -3.6486
    -3.6418  -3.4645  -3.4594  -3.4539  -2.9686  -2.9634  -2.9584  -2.5997
    -2.5942  -2.5894  -2.4352  -2.4286  -2.4269  -2.4253  -2.4235  -2.4166
    -0.8923  -0.8861  -0.8845  -0.8835  -0.8824  -0.8769  -0.7910  -0.7868
    -0.7818  -0.6713  -0.6678  -0.6641  -0.5871  -0.5821  -0.5769   0.1202
     0.1971   0.2024   0.2034   0.2057   0.2068   0.2122   1.0737   1.0791
     1.0844   1.4096   1.4119   1.4143   2.0185   2.0193   2.0220   2.0229
     2.0253   2.0262   2.0799   2.0817   2.0836   2.6308   2.6333   2.6356
     2.7300   2.7319   2.7349   2.7382   2.7400   2.7427   2.7876   2.7905
     2.7931   3.0960   3.0975   3.0992   3.1021   3.1040   3.1050   3.3626
     3.3648   3.3666   3.3770   3.3798   3.3813   3.7243   3.7278   3.7312
     3.7446   3.7500   3.7547   3.8300   3.8324   3.8349   4.0983   4.1040
     4.1071   4.1073   4.1105   4.1155   4.1440   4.1468   4.1496   4.4067
     4.4614   4.4640   4.4664   4.7047   4.7073   4.7101   4.7674   4.7719
     4.7771   4.9293   4.9294   5.2332   5.2365   5.2400   5.7171   5.7174
     6.9262   6.9303   6.9342   7.3667   7.3706   7.3743   7.5967   7.8531
     7.8565   7.8594   7.9813   7.9859   7.9907   8.1410   8.1451   8.1481
     8.1618   8.1651   8.1684   8.3900   8.3925   8.3966   8.3972   8.4010
     8.4031   8.4442

          k =-0.2500 0.2500-0.2500 ( 52563 PWs)   bands (ev):

    -5.6275  -5.1020  -5.0994  -5.0967  -4.6027  -4.6003  -4.5977  -4.1671
    -4.0697  -4.0674  -4.0649  -3.6602  -3.6537  -3.6531  -3.6497  -3.6489
    -3.6430  -3.4645  -3.4594  -3.4540  -2.9657  -2.9636  -2.9612  -2.5997
    -2.5942  -2.5894  -2.4337  -2.4291  -2.4281  -2.4240  -2.4230  -2.4180
    -0.8916  -0.8878  -0.8864  -0.8821  -0.8806  -0.8773  -0.7911  -0.7866
    -0.7818  -0.6714  -0.6679  -0.6641  -0.5895  -0.5822  -0.5744   0.1202
     0.1977   0.1993   0.2027   0.2064   0.2099   0.2116   1.0738   1.0791
     1.0843   1.4104   1.4120   1.4135   2.0182   2.0194   2.0210   2.0239
     2.0253   2.0264   2.0791   2.0816   2.0847   2.6309   2.6333   2.6356
     2.7298   2.7316   2.7360   2.7369   2.7406   2.7424   2.7875   2.7906
     2.7933   3.0961   3.0978   3.1000   3.1013   3.1036   3.1050   3.3627
     3.3649   3.3666   3.3781   3.3791   3.3807   3.7242   3.7280   3.7308
     3.7448   3.7498   3.7550   3.8299   3.8324   3.8350   4.0979   4.1048
     4.1068   4.1076   4.1096   4.1161   4.1437   4.1468   4.1497   4.4067
     4.4614   4.4640   4.4664   4.7044   4.7073   4.7103   4.7666   4.7719
     4.7780   4.9293   4.9293   5.2324   5.2366   5.2407   5.7171   5.7173
     6.9263   6.9303   6.9342   7.3655   7.3706   7.3754   7.5967   7.8524
     7.8564   7.8601   7.9813   7.9860   7.9907   8.1416   8.1448   8.1472
     8.1619   8.1654   8.1686   8.3912   8.3923   8.3954   8.3981   8.4011
     8.4023   8.4444

          k = 0.2500-0.2500-0.2500 ( 52563 PWs)   bands (ev):

    -5.6275  -5.1030  -5.0993  -5.0957  -4.6039  -4.6003  -4.5966  -4.1670
    -4.0710  -4.0674  -4.0638  -3.6600  -3.6547  -3.6522  -3.6505  -3.6481
    -3.6429  -3.4594  -3.4594  -3.4593  -2.9674  -2.9635  -2.9595  -2.5946
    -2.5944  -2.5941  -2.4344  -2.4289  -2.4272  -2.4249  -2.4231  -2.4177
    -0.8928  -0.8878  -0.8861  -0.8822  -0.8807  -0.8761  -0.7869  -0.7863
    -0.7861  -0.6682  -0.6680  -0.6674  -0.5896  -0.5821  -0.5743   0.1201
     0.1979   0.2001   0.2020   0.2071   0.2093   0.2111   1.0719   1.0792
     1.0862   1.4098   1.4120   1.4141   2.0184   2.0202   2.0220   2.0231
     2.0245   2.0264   2.0793   2.0814   2.0841   2.6316   2.6334   2.6348
     2.7322   2.7331   2.7355   2.7373   2.7399   2.7405   2.7868   2.7900
     2.7935   3.0946   3.0978   3.1005   3.1007   3.1034   3.1066   3.3627
     3.3648   3.3665   3.3775   3.3794   3.3811   3.7232   3.7279   3.7319
     3.7479   3.7496   3.7523   3.8295   3.8323   3.8356   4.1008   4.1043
     4.1064   4.1080   4.1094   4.1136   4.1434   4.1463   4.1503   4.4066
     4.4609   4.4644   4.4667   4.7041   4.7072   4.7106   4.7659   4.7719
     4.7790   4.9292   4.9293   5.2324   5.2365   5.2410   5.7171   5.7172
     6.9296   6.9303   6.9308   7.3649   7.3706   7.3761   7.5967   7.8517
     7.8564   7.8606   7.9858   7.9860   7.9862   8.1409   8.1450   8.1484
     8.1622   8.1649   8.1679   8.3903   8.3925   8.3954   8.3983   8.4008
     8.4032   8.4444

     the Fermi energy is     6.3204 ev

!    total energy              =    -730.88002201 Ry
     Harris-Foulkes estimate   =    -730.88002201 Ry
     estimated scf accuracy    <          3.3E-09 Ry

     The total energy is the sum of the following terms:

     one-electron contribution =     160.47263739 Ry
     hartree contribution      =      35.78745754 Ry
     xc contribution           =    -393.13399213 Ry
     ewald contribution        =    -534.00612481 Ry
     smearing contrib. (-TS)   =      -0.00000000 Ry

     convergence has been achieved in  12 iterations

     Forces acting on atoms (cartesian axes, Ry/au):

     atom    1 type  1   force =    -0.01611342    0.00005220    0.00003677
     atom    2 type  1   force =     0.00005383    0.00002839    0.00002625
     atom    3 type  1   force =     0.00031107    0.00002864    0.00002808
     atom    4 type  1   force =    -0.00002765    0.00003109    0.00002981
     atom    5 type  1   force =     0.00389351    0.00251062    0.00251088
     atom    6 type  1   force =    -0.00001625    0.00003736    0.00003744
     atom    7 type  1   force =    -0.00053238    0.00003635    0.00005011
     atom    8 type  1   force =     0.00005483    0.00002673    0.00002964
     atom    9 type  1   force =    -0.00058722    0.00007790    0.00006575
     atom   10 type  1   force =     0.00002987   -0.00001715   -0.00001984
     atom   11 type  1   force =     0.00331345   -0.00240058   -0.00262045
     atom   12 type  1   force =    -0.00000753   -0.00002740   -0.00004591
     atom   13 type  1   force =    -0.00027095   -0.00013806    0.00008161
     atom   14 type  1   force =    -0.00001716   -0.00003984   -0.00002204
     atom   15 type  1   force =    -0.00058705   -0.00016428   -0.00015143
     atom   16 type  1   force =     0.00003016   -0.00003887   -0.00003519
     atom   17 type  1   force =     0.00022078   -0.00014757    0.00026210
     atom   18 type  1   force =     0.00419650   -0.00284941    0.00250554
     atom   19 type  1   force =     0.00007006   -0.00003493   -0.00004975
     atom   20 type  1   force =    -0.00001463   -0.00004705    0.00012616
     atom   21 type  1   force =     0.00025720    0.00008255   -0.00019947
     atom   22 type  1   force =     0.00017869    0.00006480    0.00026664
     atom   23 type  1   force =     0.00002479   -0.00002024    0.00010745
     atom   24 type  1   force =     0.00030226   -0.00001819   -0.00004872
     atom   25 type  1   force =     0.00021086    0.00025555   -0.00014089
     atom   26 type  1   force =     0.00049584   -0.00020301   -0.00014342
     atom   27 type  1   force =     0.00025731   -0.00019794    0.00008397
     atom   28 type  1   force =     0.00017859    0.00028007    0.00007590
     atom   29 type  1   force =     0.00007022   -0.00005105   -0.00003677
     atom   30 type  1   force =    -0.00001430    0.00011265   -0.00005842
     atom   31 type  1   force =     0.00003311    0.00011368   -0.00002711
     atom   32 type  1   force =     0.00400275    0.00266103   -0.00272579
     atom   33 type  1   force =    -0.00002693    0.00003085    0.00003139
     atom   34 type  1   force =     0.00031484    0.00002808    0.00002865
     atom   35 type  1   force =     0.00005061    0.00002735    0.00002548
     atom   36 type  1   force =    -0.01611096    0.00004721    0.00003778
     atom   37 type  1   force =     0.00005252    0.00002634    0.00002670
     atom   38 type  1   force =    -0.00053438    0.00003752    0.00004835
     atom   39 type  1   force =    -0.00001680    0.00003615    0.00003649
     atom   40 type  1   force =     0.00401372    0.00273593    0.00273574
     atom   41 type  1   force =    -0.00000895   -0.00002809   -0.00004585
     atom   42 type  1   force =     0.00342799   -0.00262249   -0.00285008
     atom   43 type  1   force =     0.00002871   -0.00001574   -0.00001855
     atom   44 type  1   force =    -0.00058283    0.00007308    0.00006100
     atom   45 type  1   force =     0.00002985   -0.00003672   -0.00003505
     atom   46 type  1   force =    -0.00058460   -0.00015999   -0.00014854
     atom   47 type  1   force =    -0.00001864   -0.00004033   -0.00002073
     atom   48 type  1   force =    -0.00027231   -0.00014222    0.00008609
     atom   49 type  1   force =    -0.00001250   -0.00004508    0.00012766
     atom   50 type  1   force =     0.00007219   -0.00003627   -0.00004577
     atom   51 type  1   force =     0.00406978   -0.00262199    0.00228698
     atom   52 type  1   force =     0.00022806   -0.00015088    0.00026526
     atom   53 type  1   force =     0.00029862   -0.00001843   -0.00005004
     atom   54 type  1   force =     0.00002381   -0.00002057    0.00010643
     atom   55 type  1   force =     0.00017355    0.00005910    0.00026130
     atom   56 type  1   force =     0.00026700    0.00008535   -0.00020239
     atom   57 type  1   force =     0.00017351    0.00027560    0.00007404
     atom   58 type  1   force =     0.00026678   -0.00020098    0.00008898
     atom   59 type  1   force =     0.00048517   -0.00019609   -0.00013698
     atom   60 type  1   force =     0.00021773    0.00025964   -0.00014396
     atom   61 type  1   force =     0.00388291    0.00243220   -0.00250173
     atom   62 type  1   force =     0.00003442    0.00011185   -0.00002800
     atom   63 type  1   force =    -0.00001197    0.00011373   -0.00005959
     atom   64 type  1   force =     0.00007192   -0.00004813   -0.00003995

     Total force =     0.027419     Total SCF correction =     0.000109

     Writing output data file pwscf.save/
 
     init_run     :     41.71s CPU    109.58s WALL (       1 calls)
     electrons    :   1108.09s CPU   1801.06s WALL (       1 calls)
     forces       :     21.33s CPU     31.50s WALL (       1 calls)

     Called by init_run:
     wfcinit      :     40.06s CPU    104.43s WALL (       1 calls)
     potinit      :      0.32s CPU      0.92s WALL (       1 calls)
     hinit0       :      0.41s CPU      1.15s WALL (       1 calls)

     Called by electrons:
     c_bands      :    945.54s CPU   1535.38s WALL (      13 calls)
     sum_band     :    148.06s CPU    238.56s WALL (      13 calls)
     v_of_rho     :      3.71s CPU      5.75s WALL (      13 calls)
     newd         :     10.68s CPU     23.14s WALL (      13 calls)
     mix_rho      :      1.02s CPU      1.42s WALL (      13 calls)

     Called by c_bands:
     init_us_2    :     12.14s CPU     19.47s WALL (     112 calls)
     cegterg      :    853.22s CPU   1385.33s WALL (      52 calls)

     Called by sum_band:
     sum_band:bec :      0.06s CPU      0.07s WALL (      52 calls)
     addusdens    :     11.55s CPU     22.74s WALL (      13 calls)

     Called by *egterg:
     h_psi        :    627.25s CPU   1045.44s WALL (     216 calls)
     s_psi        :    125.38s CPU    204.63s WALL (     216 calls)
     g_psi        :      1.12s CPU      1.65s WALL (     160 calls)
     cdiaghg      :     10.74s CPU     17.93s WALL (     208 calls)

     Called by h_psi:
     h_psi:pot    :    625.21s CPU   1038.60s WALL (     216 calls)
     h_psi:calbec :    130.37s CPU    215.05s WALL (     216 calls)
     vloc_psi     :    368.63s CPU    616.17s WALL (     216 calls)
     add_vuspsi   :    126.21s CPU    207.38s WALL (     216 calls)

     General routines
     calbec       :    191.87s CPU    310.63s WALL (     284 calls)
     fft          :      3.73s CPU      6.20s WALL (     156 calls)
     ffts         :      0.18s CPU      0.29s WALL (      13 calls)
     fftw         :    370.06s CPU    636.77s WALL (   50858 calls)
 
     Parallel routines
     fft_scatt_xy :     72.67s CPU     93.17s WALL (   51027 calls)
     fft_scatt_yz :    109.22s CPU    291.95s WALL (   51027 calls)
 
     PWSCF        : 19m31.86s CPU    32m24.27s WALL

 
   This run was terminated on:  16:36:10  14Feb2020            

=------------------------------------------------------------------------------=
   JOB DONE.
=------------------------------------------------------------------------------=
