
     Program PWSCF v.6.3MaX starts on 14Feb2020 at 10: 3:44 

     This program is part of the open-source Quantum ESPRESSO suite
     for quantum simulation of materials; please cite
         "P. Giannozzi et al., J. Phys.:Condens. Matter 21 395502 (2009);
         "P. Giannozzi et al., J. Phys.:Condens. Matter 29 465901 (2017);
          URL http://www.quantum-espresso.org", 
     in publications or presentations arising from this work. More details at
     http://www.quantum-espresso.org/quote

     Parallel version (MPI), running on     4 processors

     MPI processes distributed on     1 nodes
     R & G space division:  proc/nbgrp/npool/nimage =       4
     Waiting for input...
     Reading input from standard input

     Current dimensions of program PWSCF are:
     Max number of different atomic species (ntypx) = 10
     Max number of k-points (npk) =  40000
     Max angular momentum in pseudopotentials (lmaxx) =  3

     Subspace diagonalization in iterative solution of the eigenvalue problem:
     a serial algorithm will be used

 
     Parallelization info
     --------------------
     sticks:   dense  smooth     PW     G-vecs:    dense   smooth      PW
     Min        1695    1695    439               105337   105337   13877
     Max        1697    1697    440               105338   105338   13880
     Sum        6785    6785   1757               421349   421349   55515
 


     bravais-lattice index     =            0
     lattice parameter (alat)  =      20.6591  a.u.
     unit-cell volume          =    8817.2783 (a.u.)^3
     number of atoms/cell      =           64
     number of atomic types    =            1
     number of electrons       =       256.00
     number of Kohn-Sham states=          154
     kinetic-energy cutoff     =      50.0000  Ry
     charge density cutoff     =     200.0000  Ry
     convergence threshold     =      1.0E-08
     mixing beta               =       0.7000
     number of iterations used =            8  plain     mixing
     Exchange-correlation      = PBE ( 1  4  3  4 0 0)

     celldm(1)=  20.659106  celldm(2)=   0.000000  celldm(3)=   0.000000
     celldm(4)=   0.000000  celldm(5)=   0.000000  celldm(6)=   0.000000

     crystal axes: (cart. coord. in units of alat)
               a(1) = (   1.000000   0.000000   0.000000 )  
               a(2) = (   0.000000   1.000000   0.000000 )  
               a(3) = (   0.000000   0.000000   1.000000 )  

     reciprocal axes: (cart. coord. in units 2 pi/alat)
               b(1) = (  1.000000  0.000000  0.000000 )  
               b(2) = (  0.000000  1.000000  0.000000 )  
               b(3) = (  0.000000  0.000000  1.000000 )  


     PseudoPot. # 1 for Si read from file:
     ~/kedar/softwares/SSSP_precision_pseudos/Si.pbe-n-rrkjus_psl.1.0.0.UPF
     MD5 check sum: Not computed, couldn't open file
     Pseudo is Ultrasoft + core correction, Zval =  4.0
     Generated using "atomic" code by A. Dal Corso v.5.1
     Using radial grid of 1141 points,  6 beta functions with: 
                l(1) =   0
                l(2) =   0
                l(3) =   1
                l(4) =   1
                l(5) =   2
                l(6) =   2
     Q(r) pseudized with 0 coefficients 


     atomic species   valence    mass     pseudopotential
        Si             4.00    28.08550     Si( 1.00)

     No symmetry found



   Cartesian axes

     site n.     atom                  positions (alat units)
         1           Si  tau(   1) = (   0.4404043   0.4375000   0.4375000  )
         2           Si  tau(   2) = (   0.9375000   0.4375000   0.4375000  )
         3           Si  tau(   3) = (   0.4375000   0.9375000   0.4375000  )
         4           Si  tau(   4) = (   0.9375000   0.9375000   0.4375000  )
         5           Si  tau(   5) = (   0.4375000   0.4375000   0.9375000  )
         6           Si  tau(   6) = (   0.9375000   0.4375000   0.9375000  )
         7           Si  tau(   7) = (   0.4375000   0.9375000   0.9375000  )
         8           Si  tau(   8) = (   0.9375000   0.9375000   0.9375000  )
         9           Si  tau(   9) = (   0.4375000   0.1875000   0.1875000  )
        10           Si  tau(  10) = (   0.9375000   0.1875000   0.1875000  )
        11           Si  tau(  11) = (   0.4375000   0.6875000   0.1875000  )
        12           Si  tau(  12) = (   0.9375000   0.6875000   0.1875000  )
        13           Si  tau(  13) = (   0.4375000   0.1875000   0.6875000  )
        14           Si  tau(  14) = (   0.9375000   0.1875000   0.6875000  )
        15           Si  tau(  15) = (   0.4375000   0.6875000   0.6875000  )
        16           Si  tau(  16) = (   0.9375000   0.6875000   0.6875000  )
        17           Si  tau(  17) = (   0.1875000   0.4375000   0.1904043  )
        18           Si  tau(  18) = (   0.6875000   0.4375000   0.1875000  )
        19           Si  tau(  19) = (   0.1875000   0.9375000   0.1875000  )
        20           Si  tau(  20) = (   0.6875000   0.9375000   0.1875000  )
        21           Si  tau(  21) = (   0.1875000   0.4375000   0.6875000  )
        22           Si  tau(  22) = (   0.6875000   0.4375000   0.6875000  )
        23           Si  tau(  23) = (   0.1875000   0.9375000   0.6875000  )
        24           Si  tau(  24) = (   0.6875000   0.9375000   0.6875000  )
        25           Si  tau(  25) = (   0.1875000   0.1875000   0.4375000  )
        26           Si  tau(  26) = (   0.6875000   0.1875000   0.4375000  )
        27           Si  tau(  27) = (   0.1875000   0.6875000   0.4375000  )
        28           Si  tau(  28) = (   0.6875000   0.6875000   0.4375000  )
        29           Si  tau(  29) = (   0.1875000   0.1875000   0.9375000  )
        30           Si  tau(  30) = (   0.6875000   0.1875000   0.9375000  )
        31           Si  tau(  31) = (   0.1875000   0.6875000   0.9375000  )
        32           Si  tau(  32) = (   0.6875000   0.6875000   0.9375000  )
        33           Si  tau(  33) = (   0.0625000   0.0625000   0.0625000  )
        34           Si  tau(  34) = (   0.5625000   0.0625000   0.0625000  )
        35           Si  tau(  35) = (   0.0625000   0.5625000   0.0625000  )
        36           Si  tau(  36) = (   0.5625000   0.5625000   0.0625000  )
        37           Si  tau(  37) = (   0.0625000   0.0625000   0.5625000  )
        38           Si  tau(  38) = (   0.5625000   0.0625000   0.5625000  )
        39           Si  tau(  39) = (   0.0625000   0.5625000   0.5625000  )
        40           Si  tau(  40) = (   0.5625000   0.5625000   0.5625000  )
        41           Si  tau(  41) = (   0.0625000   0.3125000   0.3125000  )
        42           Si  tau(  42) = (   0.5625000   0.3125000   0.3125000  )
        43           Si  tau(  43) = (   0.0625000   0.8125000   0.3125000  )
        44           Si  tau(  44) = (   0.5625000   0.8125000   0.3125000  )
        45           Si  tau(  45) = (   0.0625000   0.3125000   0.8125000  )
        46           Si  tau(  46) = (   0.5625000   0.3125000   0.8125000  )
        47           Si  tau(  47) = (   0.0625000   0.8125000   0.8125000  )
        48           Si  tau(  48) = (   0.5625000   0.8125000   0.8125000  )
        49           Si  tau(  49) = (   0.3125000   0.0625000   0.3125000  )
        50           Si  tau(  50) = (   0.8125000   0.0625000   0.3125000  )
        51           Si  tau(  51) = (   0.3125000   0.5625000   0.3125000  )
        52           Si  tau(  52) = (   0.8125000   0.5625000   0.3125000  )
        53           Si  tau(  53) = (   0.3125000   0.0625000   0.8125000  )
        54           Si  tau(  54) = (   0.8125000   0.0625000   0.8125000  )
        55           Si  tau(  55) = (   0.3125000   0.5625000   0.8125000  )
        56           Si  tau(  56) = (   0.8125000   0.5625000   0.8125000  )
        57           Si  tau(  57) = (   0.3125000   0.3125000   0.0625000  )
        58           Si  tau(  58) = (   0.8125000   0.3125000   0.0625000  )
        59           Si  tau(  59) = (   0.3125000   0.8125000   0.0625000  )
        60           Si  tau(  60) = (   0.8125000   0.8125000   0.0625000  )
        61           Si  tau(  61) = (   0.3125000   0.3125000   0.5625000  )
        62           Si  tau(  62) = (   0.8125000   0.3125000   0.5625000  )
        63           Si  tau(  63) = (   0.3125000   0.8125000   0.5625000  )
        64           Si  tau(  64) = (   0.8125000   0.8125000   0.5625000  )

     number of k points=     4  gaussian smearing, width (Ry)=  0.0100
                       cart. coord. in units 2pi/alat
        k(    1) = (   0.2500000   0.2500000   0.2500000), wk =   0.5000000
        k(    2) = (  -0.2500000  -0.2500000   0.2500000), wk =   0.5000000
        k(    3) = (  -0.2500000   0.2500000  -0.2500000), wk =   0.5000000
        k(    4) = (   0.2500000  -0.2500000  -0.2500000), wk =   0.5000000

     Dense  grid:   421349 G-vectors     FFT dimensions: (  96,  96,  96)

     Estimated max dynamical RAM per process >       1.03 GB

     Estimated total dynamical RAM >       4.12 GB

     Check: negative/imaginary core charge=   -0.000001    0.000000

     Initial potential from superposition of free atoms

     starting charge  255.96421, renormalised to  256.00000
     Starting wfcs are  256 randomized atomic wfcs

     total cpu time spent up to now is       49.6 secs

     Self-consistent Calculation

     iteration #  1     ecut=    50.00 Ry     beta= 0.70
     Davidson diagonalization with overlap
     ethr =  1.00E-02,  avg # of iterations =  3.0

     Threshold (ethr) on eigenvalues was too large:
     Diagonalizing with lowered threshold

     Davidson diagonalization with overlap
     ethr =  6.78E-04,  avg # of iterations =  2.0

     total cpu time spent up to now is      234.2 secs

     total energy              =    -730.80312630 Ry
     Harris-Foulkes estimate   =    -731.20928709 Ry
     estimated scf accuracy    <       1.72064254 Ry

     iteration #  2     ecut=    50.00 Ry     beta= 0.70
     Davidson diagonalization with overlap
     ethr =  6.72E-04,  avg # of iterations =  1.0

     total cpu time spent up to now is      309.6 secs

     total energy              =    -730.86503773 Ry
     Harris-Foulkes estimate   =    -730.87098615 Ry
     estimated scf accuracy    <       0.08010976 Ry

     iteration #  3     ecut=    50.00 Ry     beta= 0.70
     Davidson diagonalization with overlap
     ethr =  3.13E-05,  avg # of iterations = 10.5

     total cpu time spent up to now is      447.8 secs

     total energy              =    -730.87937897 Ry
     Harris-Foulkes estimate   =    -730.88057328 Ry
     estimated scf accuracy    <       0.00268049 Ry

     iteration #  4     ecut=    50.00 Ry     beta= 0.70
     Davidson diagonalization with overlap
     ethr =  1.05E-06,  avg # of iterations =  4.8

     total cpu time spent up to now is      566.4 secs

     total energy              =    -730.87974912 Ry
     Harris-Foulkes estimate   =    -730.88052572 Ry
     estimated scf accuracy    <       0.00230322 Ry

     iteration #  5     ecut=    50.00 Ry     beta= 0.70
     Davidson diagonalization with overlap
     ethr =  9.00E-07,  avg # of iterations =  2.0

     total cpu time spent up to now is      647.5 secs

     total energy              =    -730.88000797 Ry
     Harris-Foulkes estimate   =    -730.88010628 Ry
     estimated scf accuracy    <       0.00027647 Ry

     iteration #  6     ecut=    50.00 Ry     beta= 0.70
     Davidson diagonalization with overlap
     ethr =  1.08E-07,  avg # of iterations =  3.0

     total cpu time spent up to now is      740.2 secs

     total energy              =    -730.88002847 Ry
     Harris-Foulkes estimate   =    -730.88005507 Ry
     estimated scf accuracy    <       0.00006716 Ry

     iteration #  7     ecut=    50.00 Ry     beta= 0.70
     Davidson diagonalization with overlap
     ethr =  2.62E-08,  avg # of iterations =  2.0

     total cpu time spent up to now is      827.5 secs

     total energy              =    -730.88003878 Ry
     Harris-Foulkes estimate   =    -730.88003906 Ry
     estimated scf accuracy    <       0.00000250 Ry

     iteration #  8     ecut=    50.00 Ry     beta= 0.70
     Davidson diagonalization with overlap
     ethr =  9.76E-10,  avg # of iterations =  3.0

     total cpu time spent up to now is      935.0 secs

     total energy              =    -730.88003929 Ry
     Harris-Foulkes estimate   =    -730.88003972 Ry
     estimated scf accuracy    <       0.00000210 Ry

     iteration #  9     ecut=    50.00 Ry     beta= 0.70
     Davidson diagonalization with overlap
     ethr =  8.22E-10,  avg # of iterations =  2.0

     total cpu time spent up to now is     1016.9 secs

     total energy              =    -730.88003917 Ry
     Harris-Foulkes estimate   =    -730.88003947 Ry
     estimated scf accuracy    <       0.00000095 Ry

     iteration # 10     ecut=    50.00 Ry     beta= 0.70
     Davidson diagonalization with overlap
     ethr =  3.70E-10,  avg # of iterations =  1.0

     total cpu time spent up to now is     1093.3 secs

     total energy              =    -730.88003918 Ry
     Harris-Foulkes estimate   =    -730.88003923 Ry
     estimated scf accuracy    <       0.00000013 Ry

     iteration # 11     ecut=    50.00 Ry     beta= 0.70
     Davidson diagonalization with overlap
     ethr =  5.09E-11,  avg # of iterations =  3.0

     total cpu time spent up to now is     1191.9 secs

     total energy              =    -730.88003920 Ry
     Harris-Foulkes estimate   =    -730.88003921 Ry
     estimated scf accuracy    <       0.00000001 Ry

     iteration # 12     ecut=    50.00 Ry     beta= 0.70
     Davidson diagonalization with overlap
     ethr =  4.72E-12,  avg # of iterations =  2.5

     total cpu time spent up to now is     1277.0 secs

     End of self-consistent calculation

          k = 0.2500 0.2500 0.2500 ( 52563 PWs)   bands (ev):

    -5.6274  -5.1021  -5.0994  -5.0968  -4.6029  -4.6000  -4.5976  -4.1660
    -4.0696  -4.0670  -4.0644  -3.6590  -3.6568  -3.6509  -3.6496  -3.6492
    -3.6461  -3.4641  -3.4594  -3.4565  -2.9651  -2.9613  -2.9584  -2.5987
    -2.5944  -2.5912  -2.4340  -2.4307  -2.4257  -2.4240  -2.4230  -2.4206
    -0.8928  -0.8874  -0.8836  -0.8817  -0.8798  -0.8773  -0.7886  -0.7861
    -0.7819  -0.6691  -0.6678  -0.6618  -0.5945  -0.5828  -0.5817   0.1165
     0.1999   0.2005   0.2047   0.2069   0.2105   0.2142   1.0707   1.0779
     1.0814   1.4091   1.4119   1.4150   2.0186   2.0202   2.0220   2.0237
     2.0249   2.0262   2.0793   2.0832   2.0854   2.6298   2.6308   2.6333
     2.7327   2.7346   2.7359   2.7389   2.7415   2.7426   2.7893   2.7921
     2.7959   3.0953   3.0975   3.1005   3.1018   3.1028   3.1048   3.3640
     3.3652   3.3688   3.3782   3.3802   3.3833   3.7223   3.7261   3.7289
     3.7443   3.7455   3.7500   3.8314   3.8327   3.8369   4.0968   4.1002
     4.1056   4.1069   4.1080   4.1088   4.1453   4.1467   4.1518   4.4025
     4.4640   4.4648   4.4701   4.7067   4.7079   4.7132   4.7611   4.7696
     4.7714   4.9280   4.9330   5.2360   5.2373   5.2448   5.7167   5.7224
     6.9285   6.9324   6.9350   7.3673   7.3702   7.3764   7.5982   7.8543
     7.8578   7.8618   7.9814   7.9840   7.9881   8.1426   8.1455   8.1477
     8.1625   8.1647   8.1702   8.3888   8.3912   8.3949   8.3968   8.3973
     8.4008   8.4466

          k =-0.2500-0.2500 0.2500 ( 52563 PWs)   bands (ev):

    -5.6274  -5.1003  -5.0993  -5.0983  -4.6012  -4.6002  -4.5992  -4.1671
    -4.0688  -4.0673  -4.0657  -3.6599  -3.6538  -3.6518  -3.6508  -3.6489
    -3.6433  -3.4638  -3.4594  -3.4547  -2.9667  -2.9634  -2.9603  -2.5996
    -2.5943  -2.5894  -2.4345  -2.4290  -2.4262  -2.4259  -2.4231  -2.4172
    -0.8948  -0.8877  -0.8842  -0.8838  -0.8807  -0.8750  -0.7917  -0.7863
    -0.7808  -0.6735  -0.6681  -0.6621  -0.5891  -0.5822  -0.5749   0.1201
     0.1948   0.2002   0.2032   0.2058   0.2088   0.2148   1.0729   1.0791
     1.0852   1.4075   1.4120   1.4164   2.0170   2.0210   2.0221   2.0230
     2.0240   2.0278   2.0781   2.0815   2.0850   2.6303   2.6333   2.6362
     2.7301   2.7323   2.7358   2.7371   2.7405   2.7427   2.7856   2.7902
     2.7945   3.0956   3.0980   3.0999   3.1013   3.1033   3.1056   3.3626
     3.3650   3.3662   3.3752   3.3800   3.3832   3.7253   3.7279   3.7292
     3.7454   3.7496   3.7551   3.8292   3.8325   3.8357   4.0993   4.1056
     4.1060   4.1083   4.1085   4.1148   4.1429   4.1468   4.1506   4.4066
     4.4616   4.4643   4.4660   4.7035   4.7071   4.7111   4.7662   4.7719
     4.7785   4.9249   4.9337   5.2314   5.2365   5.2418   5.7122   5.7221
     6.9270   6.9301   6.9337   7.3649   7.3706   7.3761   7.5967   7.8512
     7.8564   7.8613   7.9814   7.9861   7.9906   8.1408   8.1450   8.1483
     8.1630   8.1650   8.1673   8.3900   8.3935   8.3958   8.3980   8.4001
     8.4034   8.4441

          k =-0.2500 0.2500-0.2500 ( 52563 PWs)   bands (ev):

    -5.6275  -5.1017  -5.0992  -5.0966  -4.6027  -4.6004  -4.5976  -4.1681
    -4.0703  -4.0676  -4.0652  -3.6568  -3.6535  -3.6532  -3.6517  -3.6463
    -3.6442  -3.4622  -3.4593  -3.4543  -2.9688  -2.9655  -2.9617  -2.5975
    -2.5942  -2.5904  -2.4314  -2.4292  -2.4281  -2.4264  -2.4214  -2.4178
    -0.8918  -0.8888  -0.8865  -0.8843  -0.8809  -0.8762  -0.7907  -0.7872
    -0.7839  -0.6737  -0.6683  -0.6672  -0.5826  -0.5815  -0.5690   0.1240
     0.1953   0.1987   0.2023   0.2043   0.2086   0.2092   1.0767   1.0803
     1.0876   1.4089   1.4121   1.4147   2.0186   2.0201   2.0215   2.0230
     2.0247   2.0263   2.0776   2.0798   2.0837   2.6331   2.6358   2.6367
     2.7299   2.7305   2.7341   2.7371   2.7384   2.7403   2.7849   2.7882
     2.7906   3.0965   3.0985   3.0994   3.1007   3.1037   3.1059   3.3607
     3.3642   3.3658   3.3752   3.3782   3.3808   3.7268   3.7294   3.7328
     3.7497   3.7545   3.7548   3.8279   3.8321   3.8340   4.1053   4.1064
     4.1075   4.1090   4.1141   4.1169   4.1414   4.1462   4.1484   4.4106
     4.4576   4.4628   4.4646   4.7013   4.7066   4.7079   4.7725   4.7744
     4.7842   4.9255   4.9306   5.2285   5.2356   5.2373   5.7119   5.7175
     6.9252   6.9284   6.9321   7.3645   7.3709   7.3739   7.5952   7.8506
     7.8549   7.8584   7.9833   7.9883   7.9906   8.1416   8.1437   8.1473
     8.1599   8.1657   8.1673   8.3923   8.3965   8.3970   8.3988   8.4025
     8.4045   8.4420

          k = 0.2500-0.2500-0.2500 ( 52563 PWs)   bands (ev):

    -5.6274  -5.1028  -5.0993  -5.0958  -4.6039  -4.6002  -4.5966  -4.1670
    -4.0706  -4.0674  -4.0640  -3.6591  -3.6547  -3.6514  -3.6513  -3.6481
    -3.6441  -3.4638  -3.4594  -3.4547  -2.9673  -2.9635  -2.9597  -2.5996
    -2.5943  -2.5893  -2.4334  -2.4291  -2.4262  -2.4260  -2.4230  -2.4185
    -0.8935  -0.8880  -0.8844  -0.8836  -0.8805  -0.8756  -0.7918  -0.7864
    -0.7810  -0.6736  -0.6682  -0.6622  -0.5896  -0.5821  -0.5742   0.1201
     0.1951   0.1996   0.2040   0.2049   0.2098   0.2141   1.0740   1.0791
     1.0841   1.4079   1.4119   1.4161   2.0191   2.0201   2.0209   2.0241
     2.0248   2.0259   2.0782   2.0815   2.0850   2.6304   2.6332   2.6362
     2.7306   2.7321   2.7356   2.7374   2.7405   2.7421   2.7869   2.7904
     2.7933   3.0940   3.0992   3.1002   3.1011   3.1020   3.1071   3.3629
     3.3645   3.3664   3.3753   3.3798   3.3833   3.7231   3.7278   3.7315
     3.7452   3.7498   3.7549   3.8288   3.8325   3.8362   4.0987   4.1038
     4.1068   4.1075   4.1105   4.1160   4.1423   4.1466   4.1507   4.4066
     4.4616   4.4643   4.4660   4.7031   4.7072   4.7114   4.7667   4.7719
     4.7781   4.9249   4.9336   5.2311   5.2365   5.2422   5.7122   5.7221
     6.9270   6.9302   6.9337   7.3664   7.3706   7.3747   7.5967   7.8526
     7.8563   7.8600   7.9813   7.9861   7.9905   8.1439   8.1446   8.1459
     8.1629   8.1649   8.1671   8.3891   8.3932   8.3954   8.3982   8.4005
     8.4041   8.4443

     the Fermi energy is     6.3204 ev

!    total energy              =    -730.88003920 Ry
     Harris-Foulkes estimate   =    -730.88003920 Ry
     estimated scf accuracy    <          1.4E-09 Ry

     The total energy is the sum of the following terms:

     one-electron contribution =     160.47361949 Ry
     hartree contribution      =      35.78697513 Ry
     xc contribution           =    -393.13398905 Ry
     ewald contribution        =    -534.00664476 Ry
     smearing contrib. (-TS)   =      -0.00000000 Ry

     convergence has been achieved in  12 iterations

     Forces acting on atoms (cartesian axes, Ry/au):

     atom    1 type  1   force =    -0.01583016    0.00011149    0.00023076
     atom    2 type  1   force =    -0.00020477   -0.00011463    0.00023783
     atom    3 type  1   force =    -0.00002070    0.00000951    0.00004367
     atom    4 type  1   force =     0.00006910   -0.00000953    0.00004359
     atom    5 type  1   force =    -0.00016921    0.00011017    0.00023028
     atom    6 type  1   force =     0.00021778   -0.00011085    0.00023069
     atom    7 type  1   force =    -0.00039920    0.00000916    0.00004431
     atom    8 type  1   force =    -0.00005027   -0.00000981    0.00004391
     atom    9 type  1   force =    -0.00042053    0.00000341   -0.00041163
     atom   10 type  1   force =     0.00011657    0.00012344   -0.00052113
     atom   11 type  1   force =    -0.00064180   -0.00000732   -0.00063922
     atom   12 type  1   force =    -0.00010619    0.00011998   -0.00053542
     atom   13 type  1   force =    -0.00051685   -0.00011885    0.00011215
     atom   14 type  1   force =     0.00001163   -0.00000026    0.00001108
     atom   15 type  1   force =    -0.00053987   -0.00012415   -0.00011304
     atom   16 type  1   force =    -0.00000761    0.00000049   -0.00000625
     atom   17 type  1   force =     0.00023904   -0.00011250   -0.01582470
     atom   18 type  1   force =     0.00023731   -0.00011449   -0.00017508
     atom   19 type  1   force =     0.00004413   -0.00000967   -0.00002145
     atom   20 type  1   force =     0.00004322   -0.00000918   -0.00040019
     atom   21 type  1   force =     0.00023141    0.00011031   -0.00019991
     atom   22 type  1   force =     0.00023682    0.00011351    0.00022366
     atom   23 type  1   force =     0.00004461    0.00000958    0.00007043
     atom   24 type  1   force =     0.00004399    0.00000954   -0.00005000
     atom   25 type  1   force =     0.00011685   -0.00000594    0.00012758
     atom   26 type  1   force =     0.00022766   -0.00015465   -0.00007014
     atom   27 type  1   force =     0.00034822    0.00000494    0.00034491
     atom   28 type  1   force =     0.00024652    0.00015416    0.00015854
     atom   29 type  1   force =    -0.00006560    0.00014752    0.00022144
     atom   30 type  1   force =     0.00003477   -0.00000080    0.00003403
     atom   31 type  1   force =     0.00015418   -0.00014786    0.00024042
     atom   32 type  1   force =     0.00005296    0.00000069    0.00005303
     atom   33 type  1   force =     0.00003112   -0.00000572   -0.00002631
     atom   34 type  1   force =     0.00028521    0.00000052    0.00028353
     atom   35 type  1   force =     0.00253726   -0.00248107    0.00386466
     atom   36 type  1   force =    -0.00002227   -0.00000168   -0.00002002
     atom   37 type  1   force =     0.00005641   -0.00000164    0.00005616
     atom   38 type  1   force =    -0.00002834    0.00000745    0.00002892
     atom   39 type  1   force =     0.00002751    0.00000054    0.00002734
     atom   40 type  1   force =     0.00398332    0.00270831    0.00276582
     atom   41 type  1   force =    -0.00274621   -0.00277393    0.00392117
     atom   42 type  1   force =     0.00391996   -0.00278512   -0.00279373
     atom   43 type  1   force =    -0.00002203   -0.00006274   -0.00008538
     atom   44 type  1   force =    -0.00008789   -0.00006518    0.00020972
     atom   45 type  1   force =    -0.00000996   -0.00006424   -0.00003512
     atom   46 type  1   force =    -0.00008400   -0.00007568   -0.00001126
     atom   47 type  1   force =    -0.00004705   -0.00005571   -0.00000390
     atom   48 type  1   force =     0.00022742   -0.00005925   -0.00004752
     atom   49 type  1   force =    -0.00000716    0.00000104   -0.00000824
     atom   50 type  1   force =     0.00005666    0.00000124    0.00028836
     atom   51 type  1   force =     0.00657354    0.00023328    0.00646965
     atom   52 type  1   force =     0.00002787    0.00001222   -0.00002218
     atom   53 type  1   force =     0.00028113   -0.00000262    0.00005453
     atom   54 type  1   force =     0.00001081    0.00000052    0.00001045
     atom   55 type  1   force =    -0.00001911   -0.00001372    0.00002584
     atom   56 type  1   force =     0.00005353   -0.00000186    0.00005374
     atom   57 type  1   force =    -0.00256843    0.00256103    0.00380235
     atom   58 type  1   force =    -0.00000793    0.00008011   -0.00008429
     atom   59 type  1   force =     0.00020405    0.00006449   -0.00008427
     atom   60 type  1   force =    -0.00004736    0.00005849    0.00022360
     atom   61 type  1   force =     0.00380321    0.00254684   -0.00251947
     atom   62 type  1   force =    -0.00003657    0.00006559   -0.00000760
     atom   63 type  1   force =    -0.00008688    0.00006337   -0.00002188
     atom   64 type  1   force =    -0.00000183    0.00005771   -0.00004884

     Total force =     0.027673     Total SCF correction =     0.000071

     Writing output data file pwscf.save/
 
     init_run     :     22.03s CPU     48.82s WALL (       1 calls)
     electrons    :    563.39s CPU   1227.36s WALL (       1 calls)
     forces       :      9.73s CPU     10.16s WALL (       1 calls)

     Called by init_run:
     wfcinit      :     21.13s CPU     46.49s WALL (       1 calls)
     potinit      :      0.19s CPU      0.43s WALL (       1 calls)
     hinit0       :      0.23s CPU      0.55s WALL (       1 calls)

     Called by electrons:
     c_bands      :    482.53s CPU   1052.48s WALL (      13 calls)
     sum_band     :     74.17s CPU    158.18s WALL (      13 calls)
     v_of_rho     :      1.76s CPU      3.67s WALL (      13 calls)
     newd         :      4.70s CPU     12.70s WALL (      13 calls)
     mix_rho      :      0.65s CPU      1.45s WALL (      13 calls)

     Called by c_bands:
     init_us_2    :      6.37s CPU     12.60s WALL (     112 calls)
     cegterg      :    437.46s CPU    957.19s WALL (      52 calls)

     Called by sum_band:
     sum_band:bec :      0.08s CPU      0.09s WALL (      52 calls)
     addusdens    :      4.90s CPU     13.07s WALL (      13 calls)

     Called by *egterg:
     h_psi        :    322.63s CPU    709.78s WALL (     215 calls)
     s_psi        :     62.09s CPU    130.03s WALL (     215 calls)
     g_psi        :      0.53s CPU      1.03s WALL (     159 calls)
     cdiaghg      :     10.58s CPU     22.04s WALL (     207 calls)

     Called by h_psi:
     h_psi:pot    :    321.63s CPU    705.80s WALL (     215 calls)
     h_psi:calbec :     62.94s CPU    132.87s WALL (     215 calls)
     vloc_psi     :    197.42s CPU    446.30s WALL (     215 calls)
     add_vuspsi   :     61.27s CPU    126.63s WALL (     215 calls)

     General routines
     calbec       :     92.29s CPU    186.03s WALL (     283 calls)
     fft          :      1.42s CPU      3.27s WALL (     156 calls)
     ffts         :      0.10s CPU      0.26s WALL (      13 calls)
     fftw         :    199.53s CPU    489.71s WALL (   50794 calls)
 
     Parallel routines
     fft_scatt_xy :     33.94s CPU     41.46s WALL (   50963 calls)
     fft_scatt_yz :     71.36s CPU    335.28s WALL (   50963 calls)
 
     PWSCF        :  9m55.75s CPU    21m27.67s WALL

 
   This run was terminated on:  10:25:12  14Feb2020            

=------------------------------------------------------------------------------=
   JOB DONE.
=------------------------------------------------------------------------------=
