
     Program PWSCF v.6.3MaX starts on 14Feb2020 at 10:37:44 

     This program is part of the open-source Quantum ESPRESSO suite
     for quantum simulation of materials; please cite
         "P. Giannozzi et al., J. Phys.:Condens. Matter 21 395502 (2009);
         "P. Giannozzi et al., J. Phys.:Condens. Matter 29 465901 (2017);
          URL http://www.quantum-espresso.org", 
     in publications or presentations arising from this work. More details at
     http://www.quantum-espresso.org/quote

     Parallel version (MPI), running on     2 processors

     MPI processes distributed on     1 nodes
     R & G space division:  proc/nbgrp/npool/nimage =       2
     Waiting for input...
     Reading input from standard input

     Current dimensions of program PWSCF are:
     Max number of different atomic species (ntypx) = 10
     Max number of k-points (npk) =  40000
     Max angular momentum in pseudopotentials (lmaxx) =  3

     Subspace diagonalization in iterative solution of the eigenvalue problem:
     a serial algorithm will be used

 
     Parallelization info
     --------------------
     sticks:   dense  smooth     PW     G-vecs:    dense   smooth      PW
     Min        3392    3392    878               210674   210674   27756
     Max        3393    3393    879               210675   210675   27759
     Sum        6785    6785   1757               421349   421349   55515
 


     bravais-lattice index     =            0
     lattice parameter (alat)  =      20.6591  a.u.
     unit-cell volume          =    8817.2783 (a.u.)^3
     number of atoms/cell      =           64
     number of atomic types    =            1
     number of electrons       =       256.00
     number of Kohn-Sham states=          154
     kinetic-energy cutoff     =      50.0000  Ry
     charge density cutoff     =     200.0000  Ry
     convergence threshold     =      1.0E-08
     mixing beta               =       0.7000
     number of iterations used =            8  plain     mixing
     Exchange-correlation      = PBE ( 1  4  3  4 0 0)

     celldm(1)=  20.659106  celldm(2)=   0.000000  celldm(3)=   0.000000
     celldm(4)=   0.000000  celldm(5)=   0.000000  celldm(6)=   0.000000

     crystal axes: (cart. coord. in units of alat)
               a(1) = (   1.000000   0.000000   0.000000 )  
               a(2) = (   0.000000   1.000000   0.000000 )  
               a(3) = (   0.000000   0.000000   1.000000 )  

     reciprocal axes: (cart. coord. in units 2 pi/alat)
               b(1) = (  1.000000  0.000000  0.000000 )  
               b(2) = (  0.000000  1.000000  0.000000 )  
               b(3) = (  0.000000  0.000000  1.000000 )  


     PseudoPot. # 1 for Si read from file:
     ~/kedar/softwares/SSSP_precision_pseudos/Si.pbe-n-rrkjus_psl.1.0.0.UPF
     MD5 check sum: Not computed, couldn't open file
     Pseudo is Ultrasoft + core correction, Zval =  4.0
     Generated using "atomic" code by A. Dal Corso v.5.1
     Using radial grid of 1141 points,  6 beta functions with: 
                l(1) =   0
                l(2) =   0
                l(3) =   1
                l(4) =   1
                l(5) =   2
                l(6) =   2
     Q(r) pseudized with 0 coefficients 


     atomic species   valence    mass     pseudopotential
        Si             4.00    28.08550     Si( 1.00)

     No symmetry found



   Cartesian axes

     site n.     atom                  positions (alat units)
         1           Si  tau(   1) = (   0.4404043   0.4375000   0.4375000  )
         2           Si  tau(   2) = (   0.9375000   0.4375000   0.4375000  )
         3           Si  tau(   3) = (   0.4375000   0.9375000   0.4375000  )
         4           Si  tau(   4) = (   0.9375000   0.9375000   0.4375000  )
         5           Si  tau(   5) = (   0.4375000   0.4375000   0.9375000  )
         6           Si  tau(   6) = (   0.9375000   0.4375000   0.9375000  )
         7           Si  tau(   7) = (   0.4375000   0.9375000   0.9375000  )
         8           Si  tau(   8) = (   0.9375000   0.9375000   0.9375000  )
         9           Si  tau(   9) = (   0.4375000   0.1875000   0.1875000  )
        10           Si  tau(  10) = (   0.9375000   0.1875000   0.1875000  )
        11           Si  tau(  11) = (   0.4375000   0.6875000   0.1875000  )
        12           Si  tau(  12) = (   0.9375000   0.6875000   0.1875000  )
        13           Si  tau(  13) = (   0.4375000   0.1875000   0.6875000  )
        14           Si  tau(  14) = (   0.9375000   0.1875000   0.6875000  )
        15           Si  tau(  15) = (   0.4375000   0.6875000   0.6875000  )
        16           Si  tau(  16) = (   0.9375000   0.6875000   0.6875000  )
        17           Si  tau(  17) = (   0.1875000   0.4375000   0.1875000  )
        18           Si  tau(  18) = (   0.6904043   0.4375000   0.1875000  )
        19           Si  tau(  19) = (   0.1875000   0.9375000   0.1875000  )
        20           Si  tau(  20) = (   0.6875000   0.9375000   0.1875000  )
        21           Si  tau(  21) = (   0.1875000   0.4375000   0.6875000  )
        22           Si  tau(  22) = (   0.6875000   0.4375000   0.6875000  )
        23           Si  tau(  23) = (   0.1875000   0.9375000   0.6875000  )
        24           Si  tau(  24) = (   0.6875000   0.9375000   0.6875000  )
        25           Si  tau(  25) = (   0.1875000   0.1875000   0.4375000  )
        26           Si  tau(  26) = (   0.6875000   0.1875000   0.4375000  )
        27           Si  tau(  27) = (   0.1875000   0.6875000   0.4375000  )
        28           Si  tau(  28) = (   0.6875000   0.6875000   0.4375000  )
        29           Si  tau(  29) = (   0.1875000   0.1875000   0.9375000  )
        30           Si  tau(  30) = (   0.6875000   0.1875000   0.9375000  )
        31           Si  tau(  31) = (   0.1875000   0.6875000   0.9375000  )
        32           Si  tau(  32) = (   0.6875000   0.6875000   0.9375000  )
        33           Si  tau(  33) = (   0.0625000   0.0625000   0.0625000  )
        34           Si  tau(  34) = (   0.5625000   0.0625000   0.0625000  )
        35           Si  tau(  35) = (   0.0625000   0.5625000   0.0625000  )
        36           Si  tau(  36) = (   0.5625000   0.5625000   0.0625000  )
        37           Si  tau(  37) = (   0.0625000   0.0625000   0.5625000  )
        38           Si  tau(  38) = (   0.5625000   0.0625000   0.5625000  )
        39           Si  tau(  39) = (   0.0625000   0.5625000   0.5625000  )
        40           Si  tau(  40) = (   0.5625000   0.5625000   0.5625000  )
        41           Si  tau(  41) = (   0.0625000   0.3125000   0.3125000  )
        42           Si  tau(  42) = (   0.5625000   0.3125000   0.3125000  )
        43           Si  tau(  43) = (   0.0625000   0.8125000   0.3125000  )
        44           Si  tau(  44) = (   0.5625000   0.8125000   0.3125000  )
        45           Si  tau(  45) = (   0.0625000   0.3125000   0.8125000  )
        46           Si  tau(  46) = (   0.5625000   0.3125000   0.8125000  )
        47           Si  tau(  47) = (   0.0625000   0.8125000   0.8125000  )
        48           Si  tau(  48) = (   0.5625000   0.8125000   0.8125000  )
        49           Si  tau(  49) = (   0.3125000   0.0625000   0.3125000  )
        50           Si  tau(  50) = (   0.8125000   0.0625000   0.3125000  )
        51           Si  tau(  51) = (   0.3125000   0.5625000   0.3125000  )
        52           Si  tau(  52) = (   0.8125000   0.5625000   0.3125000  )
        53           Si  tau(  53) = (   0.3125000   0.0625000   0.8125000  )
        54           Si  tau(  54) = (   0.8125000   0.0625000   0.8125000  )
        55           Si  tau(  55) = (   0.3125000   0.5625000   0.8125000  )
        56           Si  tau(  56) = (   0.8125000   0.5625000   0.8125000  )
        57           Si  tau(  57) = (   0.3125000   0.3125000   0.0625000  )
        58           Si  tau(  58) = (   0.8125000   0.3125000   0.0625000  )
        59           Si  tau(  59) = (   0.3125000   0.8125000   0.0625000  )
        60           Si  tau(  60) = (   0.8125000   0.8125000   0.0625000  )
        61           Si  tau(  61) = (   0.3125000   0.3125000   0.5625000  )
        62           Si  tau(  62) = (   0.8125000   0.3125000   0.5625000  )
        63           Si  tau(  63) = (   0.3125000   0.8125000   0.5625000  )
        64           Si  tau(  64) = (   0.8125000   0.8125000   0.5625000  )

     number of k points=     4  gaussian smearing, width (Ry)=  0.0100
                       cart. coord. in units 2pi/alat
        k(    1) = (   0.2500000   0.2500000   0.2500000), wk =   0.5000000
        k(    2) = (  -0.2500000  -0.2500000   0.2500000), wk =   0.5000000
        k(    3) = (  -0.2500000   0.2500000  -0.2500000), wk =   0.5000000
        k(    4) = (   0.2500000  -0.2500000  -0.2500000), wk =   0.5000000

     Dense  grid:   421349 G-vectors     FFT dimensions: (  96,  96,  96)

     Estimated max dynamical RAM per process >       2.05 GB

     Estimated total dynamical RAM >       4.11 GB

     Check: negative/imaginary core charge=   -0.000001    0.000000

     Initial potential from superposition of free atoms

     starting charge  255.96421, renormalised to  256.00000
     Starting wfcs are  256 randomized atomic wfcs

     total cpu time spent up to now is       68.0 secs

     Self-consistent Calculation

     iteration #  1     ecut=    50.00 Ry     beta= 0.70
     Davidson diagonalization with overlap
     ethr =  1.00E-02,  avg # of iterations =  3.0

     Threshold (ethr) on eigenvalues was too large:
     Diagonalizing with lowered threshold

     Davidson diagonalization with overlap
     ethr =  6.78E-04,  avg # of iterations =  2.0

     total cpu time spent up to now is      326.4 secs

     total energy              =    -730.80270447 Ry
     Harris-Foulkes estimate   =    -731.20874105 Ry
     estimated scf accuracy    <       1.72030069 Ry

     iteration #  2     ecut=    50.00 Ry     beta= 0.70
     Davidson diagonalization with overlap
     ethr =  6.72E-04,  avg # of iterations =  1.0

     total cpu time spent up to now is      434.7 secs

     total energy              =    -730.86484670 Ry
     Harris-Foulkes estimate   =    -730.87082413 Ry
     estimated scf accuracy    <       0.08014124 Ry

     iteration #  3     ecut=    50.00 Ry     beta= 0.70
     Davidson diagonalization with overlap
     ethr =  3.13E-05,  avg # of iterations = 10.8

     total cpu time spent up to now is      625.8 secs

     total energy              =    -730.87936632 Ry
     Harris-Foulkes estimate   =    -730.88061051 Ry
     estimated scf accuracy    <       0.00275225 Ry

     iteration #  4     ecut=    50.00 Ry     beta= 0.70
     Davidson diagonalization with overlap
     ethr =  1.08E-06,  avg # of iterations =  4.8

     total cpu time spent up to now is      783.3 secs

     total energy              =    -730.87974950 Ry
     Harris-Foulkes estimate   =    -730.88054813 Ry
     estimated scf accuracy    <       0.00224627 Ry

     iteration #  5     ecut=    50.00 Ry     beta= 0.70
     Davidson diagonalization with overlap
     ethr =  8.77E-07,  avg # of iterations =  2.0

     total cpu time spent up to now is      907.7 secs

     total energy              =    -730.88001130 Ry
     Harris-Foulkes estimate   =    -730.88010249 Ry
     estimated scf accuracy    <       0.00025249 Ry

     iteration #  6     ecut=    50.00 Ry     beta= 0.70
     Davidson diagonalization with overlap
     ethr =  9.86E-08,  avg # of iterations =  3.0

     total cpu time spent up to now is     1035.7 secs

     total energy              =    -730.88002811 Ry
     Harris-Foulkes estimate   =    -730.88005591 Ry
     estimated scf accuracy    <       0.00007286 Ry

     iteration #  7     ecut=    50.00 Ry     beta= 0.70
     Davidson diagonalization with overlap
     ethr =  2.85E-08,  avg # of iterations =  2.0

     total cpu time spent up to now is     1110.2 secs

     total energy              =    -730.88003896 Ry
     Harris-Foulkes estimate   =    -730.88003933 Ry
     estimated scf accuracy    <       0.00000267 Ry

     iteration #  8     ecut=    50.00 Ry     beta= 0.70
     Davidson diagonalization with overlap
     ethr =  1.04E-09,  avg # of iterations =  3.0

     total cpu time spent up to now is     1185.8 secs

     total energy              =    -730.88003962 Ry
     Harris-Foulkes estimate   =    -730.88004003 Ry
     estimated scf accuracy    <       0.00000186 Ry

     iteration #  9     ecut=    50.00 Ry     beta= 0.70
     Davidson diagonalization with overlap
     ethr =  7.27E-10,  avg # of iterations =  2.0

     total cpu time spent up to now is     1240.6 secs

     total energy              =    -730.88003954 Ry
     Harris-Foulkes estimate   =    -730.88003975 Ry
     estimated scf accuracy    <       0.00000071 Ry

     iteration # 10     ecut=    50.00 Ry     beta= 0.70
     Davidson diagonalization with overlap
     ethr =  2.76E-10,  avg # of iterations =  1.0

     total cpu time spent up to now is     1292.9 secs

     total energy              =    -730.88003953 Ry
     Harris-Foulkes estimate   =    -730.88003959 Ry
     estimated scf accuracy    <       0.00000015 Ry

     iteration # 11     ecut=    50.00 Ry     beta= 0.70
     Davidson diagonalization with overlap
     ethr =  6.05E-11,  avg # of iterations =  3.0

     total cpu time spent up to now is     1370.6 secs

     total energy              =    -730.88003954 Ry
     Harris-Foulkes estimate   =    -730.88003955 Ry
     estimated scf accuracy    <       0.00000001 Ry

     iteration # 12     ecut=    50.00 Ry     beta= 0.70
     Davidson diagonalization with overlap
     ethr =  5.49E-12,  avg # of iterations =  3.0

     total cpu time spent up to now is     1511.8 secs

     End of self-consistent calculation

          k = 0.2500 0.2500 0.2500 ( 52563 PWs)   bands (ev):

    -5.6274  -5.1021  -5.0995  -5.0968  -4.6028  -4.6002  -4.5975  -4.1660
    -4.0696  -4.0669  -4.0643  -3.6610  -3.6549  -3.6514  -3.6498  -3.6478
    -3.6467  -3.4620  -3.4613  -3.4568  -2.9643  -2.9620  -2.9584  -2.5982
    -2.5953  -2.5908  -2.4354  -2.4288  -2.4262  -2.4246  -2.4218  -2.4210
    -0.8954  -0.8855  -0.8840  -0.8816  -0.8789  -0.8773  -0.7901  -0.7849
    -0.7815  -0.6728  -0.6632  -0.6626  -0.5917  -0.5868  -0.5807   0.1164
     0.1953   0.2032   0.2048   0.2082   0.2109   0.2141   1.0707   1.0782
     1.0810   1.4067   1.4139   1.4155   2.0182   2.0193   2.0226   2.0233
     2.0247   2.0276   2.0797   2.0838   2.0844   2.6284   2.6322   2.6334
     2.7327   2.7344   2.7362   2.7379   2.7419   2.7437   2.7879   2.7929
     2.7961   3.0925   3.0992   3.1004   3.1016   3.1036   3.1055   3.3646
     3.3649   3.3686   3.3752   3.3828   3.3833   3.7221   3.7265   3.7288
     3.7443   3.7462   3.7493   3.8306   3.8336   3.8367   4.0979   4.1003
     4.1043   4.1069   4.1078   4.1092   4.1446   4.1479   4.1513   4.4026
     4.4640   4.4651   4.4699   4.7055   4.7091   4.7131   4.7629   4.7678
     4.7715   4.9255   4.9354   5.2350   5.2388   5.2443   5.7138   5.7254
     6.9305   6.9305   6.9350   7.3664   7.3724   7.3751   7.5982   7.8533
     7.8585   7.8620   7.9806   7.9861   7.9870   8.1425   8.1453   8.1482
     8.1632   8.1643   8.1695   8.3866   8.3924   8.3945   8.3966   8.3985
     8.4012   8.4464

          k =-0.2500-0.2500 0.2500 ( 52563 PWs)   bands (ev):

    -5.6275  -5.1027  -5.1002  -5.0947  -4.6037  -4.6012  -4.5958  -4.1681
    -4.0715  -4.0686  -4.0632  -3.6568  -3.6552  -3.6524  -3.6516  -3.6474
    -3.6421  -3.4619  -3.4574  -3.4565  -2.9704  -2.9652  -2.9605  -2.5977
    -2.5935  -2.5908  -2.4311  -2.4302  -2.4275  -2.4263  -2.4229  -2.4161
    -0.8919  -0.8899  -0.8860  -0.8844  -0.8824  -0.8739  -0.7911  -0.7884
    -0.7820  -0.6733  -0.6728  -0.6634  -0.5831  -0.5810  -0.5689   0.1240
     0.1949   0.1972   0.2025   0.2042   0.2059   0.2138   1.0774   1.0791
     1.0881   1.4084   1.4097   1.4176   2.0167   2.0195   2.0218   2.0230
     2.0258   2.0267   2.0778   2.0792   2.0848   2.6332   2.6344   2.6381
     2.7278   2.7297   2.7352   2.7374   2.7389   2.7403   2.7850   2.7866
     2.7931   3.0958   3.0971   3.1002   3.1010   3.1022   3.1085   3.3606
     3.3647   3.3654   3.3752   3.3756   3.3833   3.7272   3.7281   3.7339
     3.7501   3.7533   3.7555   3.8270   3.8322   3.8345   4.1053   4.1063
     4.1075   4.1102   4.1135   4.1166   4.1406   4.1462   4.1495   4.4107
     4.4577   4.4631   4.4641   4.7004   4.7069   4.7082   4.7727   4.7741
     4.7846   4.9229   4.9331   5.2275   5.2358   5.2382   5.7091   5.7204
     6.9256   6.9300   6.9301   7.3640   7.3708   7.3745   7.5952   7.8496
     7.8553   7.8592   7.9851   7.9860   7.9914   8.1391   8.1459   8.1470
     8.1613   8.1655   8.1665   8.3929   8.3959   8.3972   8.3985   8.4006
     8.4069   8.4418

          k =-0.2500 0.2500-0.2500 ( 52563 PWs)   bands (ev):

    -5.6275  -5.1018  -5.0992  -5.0966  -4.6029  -4.6002  -4.5976  -4.1681
    -4.0701  -4.0677  -4.0651  -3.6565  -3.6549  -3.6528  -3.6512  -3.6479
    -3.6423  -3.4620  -3.4573  -3.4566  -2.9685  -2.9649  -2.9627  -2.5978
    -2.5935  -2.5907  -2.4309  -2.4303  -2.4275  -2.4259  -2.4233  -2.4163
    -0.8918  -0.8894  -0.8868  -0.8839  -0.8827  -0.8740  -0.7911  -0.7884
    -0.7822  -0.6732  -0.6729  -0.6631  -0.5836  -0.5771  -0.5725   0.1239
     0.1954   0.1984   0.2009   0.2041   0.2058   0.2138   1.0770   1.0802
     1.0873   1.4084   1.4102   1.4172   2.0174   2.0202   2.0218   2.0225
     2.0255   2.0267   2.0783   2.0791   2.0837   2.6331   2.6345   2.6380
     2.7293   2.7311   2.7351   2.7367   2.7385   2.7402   2.7838   2.7874
     2.7921   3.0960   3.0977   3.0997   3.1008   3.1021   3.1085   3.3606
     3.3647   3.3654   3.3751   3.3760   3.3829   3.7271   3.7289   3.7331
     3.7502   3.7532   3.7557   3.8279   3.8312   3.8347   4.1052   4.1064
     4.1075   4.1099   4.1133   4.1171   4.1412   4.1452   4.1495   4.4107
     4.4578   4.4633   4.4639   4.7016   4.7057   4.7084   4.7723   4.7765
     4.7824   4.9228   4.9332   5.2288   5.2342   5.2384   5.7092   5.7204
     6.9256   6.9300   6.9301   7.3659   7.3687   7.3747   7.5952   7.8505
     7.8540   7.8594   7.9851   7.9860   7.9913   8.1418   8.1438   8.1476
     8.1611   8.1655   8.1661   8.3923   8.3947   8.3972   8.3992   8.4013
     8.4068   8.4418

          k = 0.2500-0.2500-0.2500 ( 52563 PWs)   bands (ev):

    -5.6274  -5.1041  -5.0983  -5.0959  -4.6046  -4.5992  -4.5967  -4.1660
    -4.0717  -4.0660  -4.0633  -3.6610  -3.6556  -3.6510  -3.6502  -3.6475
    -3.6460  -3.4619  -3.4614  -3.4567  -2.9665  -2.9616  -2.9568  -2.5982
    -2.5953  -2.5908  -2.4355  -2.4292  -2.4258  -2.4246  -2.4218  -2.4209
    -0.8952  -0.8858  -0.8835  -0.8822  -0.8785  -0.8773  -0.7900  -0.7849
    -0.7815  -0.6730  -0.6631  -0.6627  -0.5946  -0.5831  -0.5812   0.1165
     0.1953   0.2032   0.2049   0.2066   0.2121   0.2145   1.0701   1.0792
     1.0807   1.4063   1.4143   1.4154   2.0180   2.0189   2.0219   2.0234
     2.0253   2.0275   2.0790   2.0841   2.0857   2.6285   2.6321   2.6334
     2.7326   2.7339   2.7357   2.7379   2.7416   2.7435   2.7870   2.7943
     2.7969   3.0925   3.0991   3.1002   3.1011   3.1042   3.1057   3.3646
     3.3650   3.3686   3.3749   3.3829   3.3835   3.7214   3.7276   3.7285
     3.7441   3.7464   3.7493   3.8306   3.8326   3.8375   4.0979   4.1005
     4.1039   4.1070   4.1080   4.1090   4.1447   4.1467   4.1527   4.4026
     4.4642   4.4649   4.4698   4.7056   4.7077   4.7141   4.7613   4.7699
     4.7711   4.9255   4.9354   5.2352   5.2370   5.2460   5.7138   5.7253
     6.9305   6.9305   6.9350   7.3666   7.3704   7.3769   7.5982   7.8534
     7.8573   7.8632   7.9807   7.9860   7.9871   8.1425   8.1435   8.1489
     8.1637   8.1643   8.1698   8.3866   8.3929   8.3954   8.3966   8.3979
     8.4008   8.4464

     the Fermi energy is     6.3202 ev

!    total energy              =    -730.88003954 Ry
     Harris-Foulkes estimate   =    -730.88003955 Ry
     estimated scf accuracy    <          3.9E-09 Ry

     The total energy is the sum of the following terms:

     one-electron contribution =     160.47322571 Ry
     hartree contribution      =      35.78717500 Ry
     xc contribution           =    -393.13399147 Ry
     ewald contribution        =    -534.00644879 Ry
     smearing contrib. (-TS)   =      -0.00000000 Ry

     convergence has been achieved in  12 iterations

     Forces acting on atoms (cartesian axes, Ry/au):

     atom    1 type  1   force =    -0.01581787    0.00010709   -0.00023202
     atom    2 type  1   force =     0.00026282    0.00011542    0.00022963
     atom    3 type  1   force =     0.00009910    0.00000952    0.00007853
     atom    4 type  1   force =     0.00003707    0.00000950   -0.00007651
     atom    5 type  1   force =     0.00028519   -0.00010986    0.00022278
     atom    6 type  1   force =     0.00023096   -0.00011427   -0.00022898
     atom    7 type  1   force =    -0.00043151   -0.00000991   -0.00007759
     atom    8 type  1   force =     0.00006918   -0.00000944    0.00007602
     atom    9 type  1   force =    -0.00029798    0.00034176    0.00000517
     atom   10 type  1   force =     0.00023933   -0.00022031   -0.00010576
     atom   11 type  1   force =    -0.00029462   -0.00011424    0.00000030
     atom   12 type  1   force =     0.00023950    0.00023882    0.00010533
     atom   13 type  1   force =    -0.00048259   -0.00018705    0.00010073
     atom   14 type  1   force =     0.00004687    0.00006662    0.00000018
     atom   15 type  1   force =    -0.00048570   -0.00003802   -0.00010531
     atom   16 type  1   force =     0.00004599   -0.00008544    0.00000089
     atom   17 type  1   force =     0.00025444   -0.00011019    0.00022364
     atom   18 type  1   force =    -0.01582297   -0.00011648   -0.00022372
     atom   19 type  1   force =     0.00003721   -0.00000979   -0.00007572
     atom   20 type  1   force =     0.00010005   -0.00001000    0.00007643
     atom   21 type  1   force =     0.00022505    0.00010994   -0.00022343
     atom   22 type  1   force =     0.00029261    0.00011481    0.00023080
     atom   23 type  1   force =     0.00007112    0.00001017    0.00007531
     atom   24 type  1   force =    -0.00043350    0.00000922   -0.00007689
     atom   25 type  1   force =     0.00023421    0.00021373   -0.00010010
     atom   26 type  1   force =    -0.00028999   -0.00033908   -0.00000419
     atom   27 type  1   force =     0.00023254   -0.00023343    0.00010113
     atom   28 type  1   force =    -0.00029345    0.00011659   -0.00000031
     atom   29 type  1   force =     0.00004530   -0.00006592   -0.00000080
     atom   30 type  1   force =    -0.00048614    0.00019048    0.00010487
     atom   31 type  1   force =     0.00004639    0.00008522   -0.00000021
     atom   32 type  1   force =    -0.00048140    0.00003289   -0.00010035
     atom   33 type  1   force =     0.00000831    0.00000452    0.00006052
     atom   34 type  1   force =     0.00020191   -0.00000841    0.00007863
     atom   35 type  1   force =     0.00001618   -0.00001092    0.00006135
     atom   36 type  1   force =     0.00378139   -0.00246038    0.00254773
     atom   37 type  1   force =     0.00000823   -0.00000552    0.00005730
     atom   38 type  1   force =     0.00019570    0.00000869    0.00007660
     atom   39 type  1   force =     0.00001909    0.00000773    0.00006404
     atom   40 type  1   force =     0.00390058    0.00268698    0.00277343
     atom   41 type  1   force =    -0.00001987    0.00000009   -0.00007471
     atom   42 type  1   force =     0.00779586   -0.00022642   -0.00524647
     atom   43 type  1   force =     0.00005549    0.00000207   -0.00005651
     atom   44 type  1   force =    -0.00011493   -0.00000177   -0.00009896
     atom   45 type  1   force =     0.00005636    0.00000297   -0.00005134
     atom   46 type  1   force =    -0.00011624    0.00000203   -0.00007449
     atom   47 type  1   force =    -0.00003978   -0.00000119   -0.00006144
     atom   48 type  1   force =     0.00051260   -0.00000032   -0.00005690
     atom   49 type  1   force =    -0.00003039   -0.00001131    0.00007938
     atom   50 type  1   force =    -0.00003044    0.00001000    0.00007836
     atom   51 type  1   force =     0.00382928   -0.00247303    0.00254896
     atom   52 type  1   force =     0.00394949    0.00270080    0.00277128
     atom   53 type  1   force =     0.00023547    0.00000379    0.00005683
     atom   54 type  1   force =     0.00023843   -0.00000178    0.00005904
     atom   55 type  1   force =    -0.00003010   -0.00002468    0.00006169
     atom   56 type  1   force =    -0.00003027    0.00001963    0.00006540
     atom   57 type  1   force =    -0.00006784    0.00001419   -0.00007440
     atom   58 type  1   force =     0.00398921   -0.00270596   -0.00276280
     atom   59 type  1   force =     0.00028181    0.00000183   -0.00005494
     atom   60 type  1   force =    -0.00007872   -0.00000804   -0.00007918
     atom   61 type  1   force =     0.00386465    0.00248331   -0.00253551
     atom   62 type  1   force =    -0.00006835   -0.00001240   -0.00007358
     atom   63 type  1   force =    -0.00007614    0.00000664   -0.00008133
     atom   64 type  1   force =     0.00028582   -0.00000150   -0.00005779

     Total force =     0.027685     Total SCF correction =     0.000114

     Writing output data file pwscf.save/
 
     init_run     :     41.84s CPU     67.30s WALL (       1 calls)
     electrons    :   1006.73s CPU   1443.86s WALL (       1 calls)
     forces       :     20.26s CPU     32.85s WALL (       1 calls)

     Called by init_run:
     wfcinit      :     40.25s CPU     64.06s WALL (       1 calls)
     potinit      :      0.30s CPU      0.64s WALL (       1 calls)
     hinit0       :      0.39s CPU      0.77s WALL (       1 calls)

     Called by electrons:
     c_bands      :    862.21s CPU   1228.01s WALL (      13 calls)
     sum_band     :    131.60s CPU    193.78s WALL (      13 calls)
     v_of_rho     :      3.17s CPU      4.74s WALL (      13 calls)
     newd         :      9.76s CPU     18.28s WALL (      13 calls)
     mix_rho      :      0.88s CPU      1.09s WALL (      13 calls)

     Called by c_bands:
     init_us_2    :     10.50s CPU     14.87s WALL (     112 calls)
     cegterg      :    775.52s CPU   1109.76s WALL (      52 calls)

     Called by sum_band:
     sum_band:bec :      0.06s CPU      0.06s WALL (      52 calls)
     addusdens    :      9.65s CPU     19.11s WALL (      13 calls)

     Called by *egterg:
     h_psi        :    558.66s CPU    805.92s WALL (     218 calls)
     s_psi        :    118.60s CPU    163.33s WALL (     218 calls)
     g_psi        :      0.96s CPU      1.29s WALL (     162 calls)
     cdiaghg      :     10.48s CPU     15.61s WALL (     210 calls)

     Called by h_psi:
     h_psi:pot    :    556.81s CPU    800.73s WALL (     218 calls)
     h_psi:calbec :    122.67s CPU    173.19s WALL (     218 calls)
     vloc_psi     :    316.05s CPU    464.47s WALL (     218 calls)
     add_vuspsi   :    118.09s CPU    163.07s WALL (     218 calls)

     General routines
     calbec       :    181.26s CPU    258.64s WALL (     286 calls)
     fft          :      2.98s CPU      4.70s WALL (     156 calls)
     ffts         :      0.17s CPU      0.26s WALL (      13 calls)
     fftw         :    320.91s CPU    484.27s WALL (   50672 calls)
 
     Parallel routines
     fft_scatt_xy :     59.38s CPU     71.24s WALL (   50841 calls)
     fft_scatt_yz :    106.20s CPU    219.09s WALL (   50841 calls)
 
     PWSCF        : 17m49.46s CPU    25m45.39s WALL

 
   This run was terminated on:  11: 3:30  14Feb2020            

=------------------------------------------------------------------------------=
   JOB DONE.
=------------------------------------------------------------------------------=
