
     Program PWSCF v.6.3MaX starts on 14Feb2020 at 20:17:20 

     This program is part of the open-source Quantum ESPRESSO suite
     for quantum simulation of materials; please cite
         "P. Giannozzi et al., J. Phys.:Condens. Matter 21 395502 (2009);
         "P. Giannozzi et al., J. Phys.:Condens. Matter 29 465901 (2017);
          URL http://www.quantum-espresso.org", 
     in publications or presentations arising from this work. More details at
     http://www.quantum-espresso.org/quote

     Parallel version (MPI), running on     2 processors

     MPI processes distributed on     1 nodes
     R & G space division:  proc/nbgrp/npool/nimage =       2
     Waiting for input...
     Reading input from standard input

     Current dimensions of program PWSCF are:
     Max number of different atomic species (ntypx) = 10
     Max number of k-points (npk) =  40000
     Max angular momentum in pseudopotentials (lmaxx) =  3

     Subspace diagonalization in iterative solution of the eigenvalue problem:
     a serial algorithm will be used

 
     Parallelization info
     --------------------
     sticks:   dense  smooth     PW     G-vecs:    dense   smooth      PW
     Min        3392    3392    878               210674   210674   27756
     Max        3393    3393    879               210675   210675   27759
     Sum        6785    6785   1757               421349   421349   55515
 


     bravais-lattice index     =            0
     lattice parameter (alat)  =      20.6591  a.u.
     unit-cell volume          =    8817.2783 (a.u.)^3
     number of atoms/cell      =           64
     number of atomic types    =            1
     number of electrons       =       256.00
     number of Kohn-Sham states=          154
     kinetic-energy cutoff     =      50.0000  Ry
     charge density cutoff     =     200.0000  Ry
     convergence threshold     =      1.0E-08
     mixing beta               =       0.7000
     number of iterations used =            8  plain     mixing
     Exchange-correlation      = PBE ( 1  4  3  4 0 0)

     celldm(1)=  20.659106  celldm(2)=   0.000000  celldm(3)=   0.000000
     celldm(4)=   0.000000  celldm(5)=   0.000000  celldm(6)=   0.000000

     crystal axes: (cart. coord. in units of alat)
               a(1) = (   1.000000   0.000000   0.000000 )  
               a(2) = (   0.000000   1.000000   0.000000 )  
               a(3) = (   0.000000   0.000000   1.000000 )  

     reciprocal axes: (cart. coord. in units 2 pi/alat)
               b(1) = (  1.000000  0.000000  0.000000 )  
               b(2) = (  0.000000  1.000000  0.000000 )  
               b(3) = (  0.000000  0.000000  1.000000 )  


     PseudoPot. # 1 for Si read from file:
     ~/kedar/softwares/SSSP_precision_pseudos/Si.pbe-n-rrkjus_psl.1.0.0.UPF
     MD5 check sum: Not computed, couldn't open file
     Pseudo is Ultrasoft + core correction, Zval =  4.0
     Generated using "atomic" code by A. Dal Corso v.5.1
     Using radial grid of 1141 points,  6 beta functions with: 
                l(1) =   0
                l(2) =   0
                l(3) =   1
                l(4) =   1
                l(5) =   2
                l(6) =   2
     Q(r) pseudized with 0 coefficients 


     atomic species   valence    mass     pseudopotential
        Si             4.00    28.08550     Si( 1.00)

      2 Sym. Ops., with inversion, found ( 1 have fractional translation)



   Cartesian axes

     site n.     atom                  positions (alat units)
         1           Si  tau(   1) = (   0.4404043   0.4375000   0.4375000  )
         2           Si  tau(   2) = (   0.9375000   0.4375000   0.4375000  )
         3           Si  tau(   3) = (   0.4375000   0.9375000   0.4375000  )
         4           Si  tau(   4) = (   0.9375000   0.9375000   0.4375000  )
         5           Si  tau(   5) = (   0.4375000   0.4375000   0.9375000  )
         6           Si  tau(   6) = (   0.9375000   0.4375000   0.9375000  )
         7           Si  tau(   7) = (   0.4375000   0.9375000   0.9375000  )
         8           Si  tau(   8) = (   0.9375000   0.9375000   0.9375000  )
         9           Si  tau(   9) = (   0.4375000   0.1875000   0.1875000  )
        10           Si  tau(  10) = (   0.9375000   0.1875000   0.1875000  )
        11           Si  tau(  11) = (   0.4375000   0.6875000   0.1875000  )
        12           Si  tau(  12) = (   0.9375000   0.6875000   0.1875000  )
        13           Si  tau(  13) = (   0.4375000   0.1875000   0.6875000  )
        14           Si  tau(  14) = (   0.9375000   0.1875000   0.6875000  )
        15           Si  tau(  15) = (   0.4375000   0.6875000   0.6875000  )
        16           Si  tau(  16) = (   0.9375000   0.6875000   0.6875000  )
        17           Si  tau(  17) = (   0.1875000   0.4375000   0.1875000  )
        18           Si  tau(  18) = (   0.6875000   0.4375000   0.1875000  )
        19           Si  tau(  19) = (   0.1875000   0.9375000   0.1875000  )
        20           Si  tau(  20) = (   0.6875000   0.9375000   0.1875000  )
        21           Si  tau(  21) = (   0.1875000   0.4375000   0.6875000  )
        22           Si  tau(  22) = (   0.6875000   0.4375000   0.6875000  )
        23           Si  tau(  23) = (   0.1875000   0.9375000   0.6875000  )
        24           Si  tau(  24) = (   0.6875000   0.9375000   0.6875000  )
        25           Si  tau(  25) = (   0.1875000   0.1875000   0.4375000  )
        26           Si  tau(  26) = (   0.6875000   0.1875000   0.4375000  )
        27           Si  tau(  27) = (   0.1875000   0.6875000   0.4375000  )
        28           Si  tau(  28) = (   0.6875000   0.6875000   0.4375000  )
        29           Si  tau(  29) = (   0.1875000   0.1875000   0.9375000  )
        30           Si  tau(  30) = (   0.6875000   0.1875000   0.9375000  )
        31           Si  tau(  31) = (   0.1875000   0.6875000   0.9375000  )
        32           Si  tau(  32) = (   0.6875000   0.6875000   0.9375000  )
        33           Si  tau(  33) = (   0.0625000   0.0625000   0.0625000  )
        34           Si  tau(  34) = (   0.5625000   0.0625000   0.0625000  )
        35           Si  tau(  35) = (   0.0625000   0.5625000   0.0625000  )
        36           Si  tau(  36) = (   0.5625000   0.5625000   0.0625000  )
        37           Si  tau(  37) = (   0.0625000   0.0625000   0.5625000  )
        38           Si  tau(  38) = (   0.5625000   0.0625000   0.5625000  )
        39           Si  tau(  39) = (   0.0625000   0.5625000   0.5625000  )
        40           Si  tau(  40) = (   0.5625000   0.5625000   0.5625000  )
        41           Si  tau(  41) = (   0.0625000   0.3125000   0.3125000  )
        42           Si  tau(  42) = (   0.5625000   0.3125000   0.3125000  )
        43           Si  tau(  43) = (   0.0625000   0.8125000   0.3125000  )
        44           Si  tau(  44) = (   0.5625000   0.8125000   0.3125000  )
        45           Si  tau(  45) = (   0.0625000   0.3125000   0.8125000  )
        46           Si  tau(  46) = (   0.5625000   0.3125000   0.8125000  )
        47           Si  tau(  47) = (   0.0625000   0.8125000   0.8125000  )
        48           Si  tau(  48) = (   0.5625000   0.8125000   0.8125000  )
        49           Si  tau(  49) = (   0.3125000   0.0625000   0.3125000  )
        50           Si  tau(  50) = (   0.8095957   0.0625000   0.3125000  )
        51           Si  tau(  51) = (   0.3125000   0.5625000   0.3125000  )
        52           Si  tau(  52) = (   0.8125000   0.5625000   0.3125000  )
        53           Si  tau(  53) = (   0.3125000   0.0625000   0.8125000  )
        54           Si  tau(  54) = (   0.8125000   0.0625000   0.8125000  )
        55           Si  tau(  55) = (   0.3125000   0.5625000   0.8125000  )
        56           Si  tau(  56) = (   0.8125000   0.5625000   0.8125000  )
        57           Si  tau(  57) = (   0.3125000   0.3125000   0.0625000  )
        58           Si  tau(  58) = (   0.8125000   0.3125000   0.0625000  )
        59           Si  tau(  59) = (   0.3125000   0.8125000   0.0625000  )
        60           Si  tau(  60) = (   0.8125000   0.8125000   0.0625000  )
        61           Si  tau(  61) = (   0.3125000   0.3125000   0.5625000  )
        62           Si  tau(  62) = (   0.8125000   0.3125000   0.5625000  )
        63           Si  tau(  63) = (   0.3125000   0.8125000   0.5625000  )
        64           Si  tau(  64) = (   0.8125000   0.8125000   0.5625000  )

     number of k points=     4  gaussian smearing, width (Ry)=  0.0100
                       cart. coord. in units 2pi/alat
        k(    1) = (   0.2500000   0.2500000   0.2500000), wk =   0.5000000
        k(    2) = (  -0.2500000   0.2500000  -0.2500000), wk =   0.5000000
        k(    3) = (   0.2500000  -0.2500000  -0.2500000), wk =   0.5000000
        k(    4) = (   0.2500000   0.2500000  -0.2500000), wk =   0.5000000

     Dense  grid:   421349 G-vectors     FFT dimensions: (  96,  96,  96)

     Estimated max dynamical RAM per process >       2.05 GB

     Estimated total dynamical RAM >       4.11 GB

     Check: negative/imaginary core charge=   -0.000001    0.000000

     Initial potential from superposition of free atoms

     starting charge  255.96421, renormalised to  256.00000
     Starting wfcs are  256 randomized atomic wfcs

     total cpu time spent up to now is       61.6 secs

     Self-consistent Calculation

     iteration #  1     ecut=    50.00 Ry     beta= 0.70
     Davidson diagonalization with overlap
     ethr =  1.00E-02,  avg # of iterations =  3.0

     Threshold (ethr) on eigenvalues was too large:
     Diagonalizing with lowered threshold

     Davidson diagonalization with overlap
     ethr =  6.78E-04,  avg # of iterations =  2.0

     total cpu time spent up to now is      287.0 secs

     total energy              =    -730.80300743 Ry
     Harris-Foulkes estimate   =    -731.20920616 Ry
     estimated scf accuracy    <       1.72073859 Ry

     iteration #  2     ecut=    50.00 Ry     beta= 0.70
     Davidson diagonalization with overlap
     ethr =  6.72E-04,  avg # of iterations =  1.0

     total cpu time spent up to now is      399.5 secs

     total energy              =    -730.86498215 Ry
     Harris-Foulkes estimate   =    -730.87093821 Ry
     estimated scf accuracy    <       0.08010940 Ry

     iteration #  3     ecut=    50.00 Ry     beta= 0.70
     Davidson diagonalization with overlap
     ethr =  3.13E-05,  avg # of iterations = 10.5

     total cpu time spent up to now is      600.1 secs

     total energy              =    -730.87935690 Ry
     Harris-Foulkes estimate   =    -730.88057121 Ry
     estimated scf accuracy    <       0.00270625 Ry

     iteration #  4     ecut=    50.00 Ry     beta= 0.70
     Davidson diagonalization with overlap
     ethr =  1.06E-06,  avg # of iterations =  4.2

     total cpu time spent up to now is      770.0 secs

     total energy              =    -730.87973831 Ry
     Harris-Foulkes estimate   =    -730.88050992 Ry
     estimated scf accuracy    <       0.00218070 Ry

     iteration #  5     ecut=    50.00 Ry     beta= 0.70
     Davidson diagonalization with overlap
     ethr =  8.52E-07,  avg # of iterations =  2.0

     total cpu time spent up to now is      900.6 secs

     total energy              =    -730.87999458 Ry
     Harris-Foulkes estimate   =    -730.88008421 Ry
     estimated scf accuracy    <       0.00024859 Ry

     iteration #  6     ecut=    50.00 Ry     beta= 0.70
     Davidson diagonalization with overlap
     ethr =  9.71E-08,  avg # of iterations =  3.0

     total cpu time spent up to now is     1039.4 secs

     total energy              =    -730.88001232 Ry
     Harris-Foulkes estimate   =    -730.88004006 Ry
     estimated scf accuracy    <       0.00007347 Ry

     iteration #  7     ecut=    50.00 Ry     beta= 0.70
     Davidson diagonalization with overlap
     ethr =  2.87E-08,  avg # of iterations =  2.0

     total cpu time spent up to now is     1169.2 secs

     total energy              =    -730.88002333 Ry
     Harris-Foulkes estimate   =    -730.88002363 Ry
     estimated scf accuracy    <       0.00000244 Ry

     iteration #  8     ecut=    50.00 Ry     beta= 0.70
     Davidson diagonalization with overlap
     ethr =  9.55E-10,  avg # of iterations =  3.0

     total cpu time spent up to now is     1357.2 secs

     total energy              =    -730.88002399 Ry
     Harris-Foulkes estimate   =    -730.88002439 Ry
     estimated scf accuracy    <       0.00000175 Ry

     iteration #  9     ecut=    50.00 Ry     beta= 0.70
     Davidson diagonalization with overlap
     ethr =  6.83E-10,  avg # of iterations =  1.0

     total cpu time spent up to now is     1499.9 secs

     total energy              =    -730.88002389 Ry
     Harris-Foulkes estimate   =    -730.88002409 Ry
     estimated scf accuracy    <       0.00000059 Ry

     iteration # 10     ecut=    50.00 Ry     beta= 0.70
     Davidson diagonalization with overlap
     ethr =  2.31E-10,  avg # of iterations =  2.0

     total cpu time spent up to now is     1647.2 secs

     total energy              =    -730.88002390 Ry
     Harris-Foulkes estimate   =    -730.88002394 Ry
     estimated scf accuracy    <       0.00000009 Ry

     iteration # 11     ecut=    50.00 Ry     beta= 0.70
     Davidson diagonalization with overlap
     ethr =  3.53E-11,  avg # of iterations =  3.0

     total cpu time spent up to now is     1814.6 secs

     total energy              =    -730.88002391 Ry
     Harris-Foulkes estimate   =    -730.88002392 Ry
     estimated scf accuracy    <       0.00000002 Ry

     iteration # 12     ecut=    50.00 Ry     beta= 0.70
     Davidson diagonalization with overlap
     ethr =  6.16E-12,  avg # of iterations =  2.0

     total cpu time spent up to now is     1987.0 secs

     End of self-consistent calculation

          k = 0.2500 0.2500 0.2500 ( 52563 PWs)   bands (ev):

    -5.6274  -5.1041  -5.0983  -5.0960  -4.6047  -4.5991  -4.5968  -4.1660
    -4.0718  -4.0660  -4.0631  -3.6608  -3.6562  -3.6511  -3.6499  -3.6475
    -3.6460  -3.4619  -3.4613  -3.4568  -2.9667  -2.9616  -2.9564  -2.5983
    -2.5954  -2.5908  -2.4356  -2.4297  -2.4252  -2.4242  -2.4222  -2.4209
    -0.8957  -0.8861  -0.8825  -0.8813  -0.8797  -0.8775  -0.7900  -0.7849
    -0.7817  -0.6728  -0.6630  -0.6625  -0.5907  -0.5878  -0.5807   0.1164
     0.1952   0.2024   0.2063   0.2085   0.2110   0.2133   1.0704   1.0786
     1.0809   1.4063   1.4144   1.4154   2.0180   2.0193   2.0224   2.0238
     2.0248   2.0266   2.0798   2.0840   2.0847   2.6284   2.6321   2.6334
     2.7334   2.7349   2.7363   2.7380   2.7412   2.7417   2.7875   2.7937
     2.7971   3.0924   3.0988   3.1004   3.1008   3.1043   3.1059   3.3646
     3.3647   3.3685   3.3749   3.3832   3.3837   3.7212   3.7272   3.7287
     3.7443   3.7463   3.7493   3.8307   3.8331   3.8370   4.0987   4.1009
     4.1029   4.1065   4.1080   4.1094   4.1446   4.1474   4.1520   4.4026
     4.4641   4.4649   4.4698   4.7056   4.7085   4.7136   4.7625   4.7683
     4.7714   4.9256   4.9354   5.2350   5.2384   5.2449   5.7138   5.7253
     6.9304   6.9305   6.9350   7.3664   7.3731   7.3743   7.5982   7.8533
     7.8585   7.8620   7.9807   7.9860   7.9870   8.1428   8.1439   8.1496
     8.1634   8.1641   8.1694   8.3864   8.3925   8.3940   8.3970   8.3986
     8.4009   8.4467

          k =-0.2500 0.2500-0.2500 ( 52563 PWs)   bands (ev):

    -5.6276  -5.1025  -5.0991  -5.0960  -4.6036  -4.5999  -4.5973  -4.1680
    -4.0711  -4.0679  -4.0643  -3.6571  -3.6565  -3.6531  -3.6509  -3.6467
    -3.6410  -3.4623  -3.4613  -3.4523  -2.9696  -2.9648  -2.9616  -2.5973
    -2.5949  -2.5899  -2.4323  -2.4303  -2.4281  -2.4257  -2.4218  -2.4159
    -0.8922  -0.8877  -0.8875  -0.8838  -0.8798  -0.8778  -0.7901  -0.7864
    -0.7849  -0.6755  -0.6701  -0.6636  -0.5825  -0.5785  -0.5721   0.1240
     0.1951   0.1990   0.2018   0.2046   0.2085   0.2093   1.0785   1.0823
     1.0837   1.4090   1.4094   1.4173   2.0186   2.0190   2.0215   2.0224
     2.0237   2.0280   2.0781   2.0794   2.0846   2.6336   2.6343   2.6377
     2.7282   2.7306   2.7362   2.7366   2.7378   2.7400   2.7856   2.7865
     2.7924   3.0951   3.0984   3.1002   3.1009   3.1045   3.1057   3.3596
     3.3646   3.3660   3.3755   3.3759   3.3831   3.7276   3.7305   3.7310
     3.7488   3.7517   3.7586   3.8276   3.8328   3.8333   4.1054   4.1064
     4.1071   4.1090   4.1107   4.1205   4.1412   4.1472   4.1481   4.4105
     4.4568   4.4632   4.4651   4.7010   4.7069   4.7077   4.7728   4.7776
     4.7808   4.9230   4.9332   5.2284   5.2360   5.2372   5.7091   5.7203
     6.9251   6.9265   6.9341   7.3658   7.3710   7.3725   7.5952   7.8504
     7.8563   7.8572   7.9818   7.9902   7.9904   8.1413   8.1446   8.1467
     8.1598   8.1649   8.1681   8.3916   8.3967   8.3969   8.4013   8.4020
     8.4029   8.4419

          k = 0.2500-0.2500-0.2500 ( 52563 PWs)   bands (ev):

    -5.6274  -5.1023  -5.0994  -5.0967  -4.6027  -4.6003  -4.5975  -4.1659
    -4.0696  -4.0671  -4.0644  -3.6598  -3.6549  -3.6512  -3.6507  -3.6483
    -3.6466  -3.4619  -3.4612  -3.4568  -2.9634  -2.9625  -2.9588  -2.5981
    -2.5955  -2.5907  -2.4347  -2.4277  -2.4262  -2.4254  -2.4223  -2.4214
    -0.8951  -0.8850  -0.8840  -0.8833  -0.8786  -0.8762  -0.7903  -0.7848
    -0.7819  -0.6729  -0.6630  -0.6626  -0.5950  -0.5826  -0.5814   0.1165
     0.1950   0.2039   0.2046   0.2059   0.2120   0.2152   1.0704   1.0787
     1.0809   1.4067   1.4138   1.4155   2.0179   2.0191   2.0221   2.0240
     2.0250   2.0269   2.0790   2.0840   2.0856   2.6283   2.6322   2.6333
     2.7333   2.7345   2.7369   2.7380   2.7406   2.7423   2.7873   2.7939
     2.7970   3.0923   3.0989   3.1005   3.1018   3.1035   3.1055   3.3647
     3.3649   3.3680   3.3752   3.3827   3.3839   3.7219   3.7272   3.7284
     3.7440   3.7462   3.7495   3.8307   3.8330   3.8372   4.0981   4.1003
     4.1037   4.1077   4.1080   4.1087   4.1447   4.1470   4.1522   4.4026
     4.4642   4.4649   4.4698   4.7055   4.7081   4.7140   4.7616   4.7695
     4.7712   4.9255   4.9355   5.2351   5.2374   5.2458   5.7138   5.7252
     6.9304   6.9305   6.9350   7.3667   7.3701   7.3771   7.5982   7.8534
     7.8573   7.8631   7.9806   7.9861   7.9870   8.1423   8.1449   8.1484
     8.1637   8.1648   8.1691   8.3863   8.3931   8.3950   8.3969   8.3979
     8.4006   8.4465

          k = 0.2500 0.2500-0.2500 ( 52563 PWs)   bands (ev):

    -5.6276  -5.1025  -5.0991  -5.0960  -4.6036  -4.5999  -4.5973  -4.1682
    -4.0708  -4.0678  -4.0643  -3.6552  -3.6548  -3.6544  -3.6519  -3.6476
    -3.6414  -3.4623  -3.4620  -3.4517  -2.9696  -2.9648  -2.9616  -2.5978
    -2.5973  -2.5868  -2.4303  -2.4297  -2.4286  -2.4268  -2.4224  -2.4164
    -0.8908  -0.8905  -0.8858  -0.8853  -0.8792  -0.8768  -0.7919  -0.7900
    -0.7800  -0.6762  -0.6701  -0.6628  -0.5825  -0.5785  -0.5719   0.1238
     0.1945   0.1970   0.2022   0.2038   0.2105   0.2105   1.0785   1.0823
     1.0837   1.4090   1.4094   1.4172   2.0178   2.0189   2.0223   2.0229
     2.0241   2.0278   2.0778   2.0790   2.0846   2.6332   2.6336   2.6388
     2.7284   2.7299   2.7347   2.7378   2.7391   2.7407   2.7851   2.7859
     2.7925   3.0950   3.0986   3.0999   3.1013   3.1046   3.1055   3.3607
     3.3634   3.3662   3.3752   3.3760   3.3831   3.7274   3.7302   3.7312
     3.7487   3.7514   3.7591   3.8278   3.8327   3.8335   4.1049   4.1057
     4.1073   4.1098   4.1112   4.1204   4.1409   4.1471   4.1481   4.4105
     4.4585   4.4615   4.4651   4.7014   4.7068   4.7078   4.7728   4.7776
     4.7808   4.9228   4.9331   5.2283   5.2360   5.2372   5.7091   5.7204
     6.9253   6.9263   6.9340   7.3658   7.3710   7.3725   7.5951   7.8502
     7.8564   7.8572   7.9807   7.9903   7.9914   8.1409   8.1448   8.1469
     8.1623   8.1629   8.1681   8.3911   8.3951   8.3974   8.4001   8.4031
     8.4043   8.4420

     the Fermi energy is     6.3205 ev

!    total energy              =    -730.88002391 Ry
     Harris-Foulkes estimate   =    -730.88002391 Ry
     estimated scf accuracy    <          2.9E-09 Ry

     The total energy is the sum of the following terms:

     one-electron contribution =     160.47262114 Ry
     hartree contribution      =      35.78747707 Ry
     xc contribution           =    -393.13399752 Ry
     ewald contribution        =    -534.00612461 Ry
     smearing contrib. (-TS)   =      -0.00000000 Ry

     convergence has been achieved in  12 iterations

     Forces acting on atoms (cartesian axes, Ry/au):

     atom    1 type  1   force =    -0.01608506    0.00002767   -0.00002930
     atom    2 type  1   force =     0.00008185    0.00003663   -0.00005050
     atom    3 type  1   force =     0.00006448    0.00003658   -0.00003675
     atom    4 type  1   force =    -0.00384533    0.00251003   -0.00251043
     atom    5 type  1   force =     0.00007596    0.00002990   -0.00002989
     atom    6 type  1   force =    -0.00026198    0.00002757   -0.00002763
     atom    7 type  1   force =    -0.00050427    0.00003005   -0.00002683
     atom    8 type  1   force =     0.00008344    0.00005030   -0.00003635
     atom    9 type  1   force =    -0.00052037    0.00007773    0.00015058
     atom   10 type  1   force =    -0.00383804   -0.00250063    0.00252018
     atom   11 type  1   force =    -0.00055504    0.00008357   -0.00008032
     atom   12 type  1   force =     0.00005969   -0.00002797    0.00004170
     atom   13 type  1   force =    -0.00055411   -0.00013973    0.00013669
     atom   14 type  1   force =     0.00005888   -0.00005916    0.00004572
     atom   15 type  1   force =    -0.00051031   -0.00014448   -0.00008390
     atom   16 type  1   force =    -0.00025322   -0.00003709    0.00001760
     atom   17 type  1   force =     0.00020371   -0.00013501    0.00019842
     atom   18 type  1   force =     0.00029632   -0.00015282   -0.00027938
     atom   19 type  1   force =     0.00005432   -0.00004646   -0.00011327
     atom   20 type  1   force =    -0.00391456   -0.00274482   -0.00266016
     atom   21 type  1   force =     0.00024999    0.00007965   -0.00025535
     atom   22 type  1   force =    -0.00002051    0.00008539    0.00020135
     atom   23 type  1   force =     0.00001763   -0.00001752    0.00005086
     atom   24 type  1   force =     0.00010217   -0.00003921   -0.00011344
     atom   25 type  1   force =     0.00024075    0.00026133   -0.00007326
     atom   26 type  1   force =    -0.00372224    0.00250671    0.00262045
     atom   27 type  1   force =     0.00020355   -0.00019895    0.00013649
     atom   28 type  1   force =     0.00029667    0.00026732    0.00016352
     atom   29 type  1   force =     0.00001757   -0.00004982    0.00001584
     atom   30 type  1   force =     0.00010221    0.00012565    0.00002821
     atom   31 type  1   force =     0.00006344    0.00010740    0.00004011
     atom   32 type  1   force =    -0.00021440   -0.00004834    0.00003773
     atom   33 type  1   force =    -0.00024999   -0.00007965    0.00025535
     atom   34 type  1   force =     0.00002051   -0.00008539   -0.00020135
     atom   35 type  1   force =    -0.00001763    0.00001752   -0.00005086
     atom   36 type  1   force =    -0.00010217    0.00003921    0.00011344
     atom   37 type  1   force =    -0.00020371    0.00013501   -0.00019842
     atom   38 type  1   force =    -0.00029632    0.00015282    0.00027938
     atom   39 type  1   force =    -0.00005432    0.00004646    0.00011327
     atom   40 type  1   force =     0.00391456    0.00274482    0.00266016
     atom   41 type  1   force =    -0.00024075   -0.00026133    0.00007326
     atom   42 type  1   force =     0.00372224   -0.00250671   -0.00262045
     atom   43 type  1   force =    -0.00020355    0.00019895   -0.00013649
     atom   44 type  1   force =    -0.00029667   -0.00026732   -0.00016352
     atom   45 type  1   force =    -0.00001757    0.00004982   -0.00001584
     atom   46 type  1   force =    -0.00010221   -0.00012565   -0.00002821
     atom   47 type  1   force =    -0.00006344   -0.00010740   -0.00004011
     atom   48 type  1   force =     0.00021440    0.00004834   -0.00003773
     atom   49 type  1   force =    -0.00008185   -0.00003663    0.00005050
     atom   50 type  1   force =     0.01608506   -0.00002767    0.00002930
     atom   51 type  1   force =     0.00384533   -0.00251003    0.00251043
     atom   52 type  1   force =    -0.00006448   -0.00003658    0.00003675
     atom   53 type  1   force =     0.00026198   -0.00002757    0.00002763
     atom   54 type  1   force =    -0.00007596   -0.00002990    0.00002989
     atom   55 type  1   force =    -0.00008344   -0.00005030    0.00003635
     atom   56 type  1   force =     0.00050427   -0.00003005    0.00002683
     atom   57 type  1   force =    -0.00005888    0.00005916   -0.00004572
     atom   58 type  1   force =     0.00055411    0.00013973   -0.00013669
     atom   59 type  1   force =     0.00025322    0.00003709   -0.00001760
     atom   60 type  1   force =     0.00051031    0.00014448    0.00008390
     atom   61 type  1   force =     0.00383804    0.00250063   -0.00252018
     atom   62 type  1   force =     0.00052037   -0.00007773   -0.00015058
     atom   63 type  1   force =    -0.00005969    0.00002797   -0.00004170
     atom   64 type  1   force =     0.00055504   -0.00008357    0.00008032

     Total force =     0.027318     Total SCF correction =     0.000095

     Writing output data file pwscf.save/
 
     init_run     :     42.68s CPU     61.17s WALL (       1 calls)
     electrons    :   1117.86s CPU   1925.38s WALL (       1 calls)
     forces       :     20.32s CPU     43.56s WALL (       1 calls)

     Called by init_run:
     wfcinit      :     41.12s CPU     59.18s WALL (       1 calls)
     potinit      :      0.30s CPU      0.34s WALL (       1 calls)
     hinit0       :      0.39s CPU      0.43s WALL (       1 calls)

     Called by electrons:
     c_bands      :    953.92s CPU   1626.10s WALL (      13 calls)
     sum_band     :    149.31s CPU    266.51s WALL (      13 calls)
     v_of_rho     :      3.43s CPU      6.21s WALL (      13 calls)
     newd         :     11.09s CPU     25.68s WALL (      13 calls)
     mix_rho      :      0.95s CPU      1.89s WALL (      13 calls)

     Called by c_bands:
     init_us_2    :     11.78s CPU     19.91s WALL (     112 calls)
     cegterg      :    860.32s CPU   1467.14s WALL (      52 calls)

     Called by sum_band:
     sum_band:bec :      0.06s CPU      0.07s WALL (      52 calls)
     addusdens    :     11.67s CPU     26.72s WALL (      13 calls)

     Called by *egterg:
     h_psi        :    630.83s CPU   1069.69s WALL (     211 calls)
     s_psi        :    125.93s CPU    208.73s WALL (     211 calls)
     g_psi        :      1.10s CPU      1.83s WALL (     155 calls)
     cdiaghg      :     10.30s CPU     16.93s WALL (     203 calls)

     Called by h_psi:
     h_psi:pot    :    628.87s CPU   1062.74s WALL (     211 calls)
     h_psi:calbec :    130.64s CPU    219.20s WALL (     211 calls)
     vloc_psi     :    372.83s CPU    637.15s WALL (     211 calls)
     add_vuspsi   :    125.40s CPU    206.39s WALL (     211 calls)

     General routines
     calbec       :    192.24s CPU    332.03s WALL (     279 calls)
     fft          :      2.46s CPU      4.60s WALL (     156 calls)
     ffts         :      0.21s CPU      0.32s WALL (      13 calls)
     fftw         :    379.79s CPU    677.60s WALL (   50592 calls)
 
     Parallel routines
     fft_scatt_xy :     68.36s CPU     90.26s WALL (   50761 calls)
     fft_scatt_yz :    127.18s CPU    333.45s WALL (   50761 calls)
 
     PWSCF        : 19m41.60s CPU    33m52.07s WALL

 
   This run was terminated on:  20:51:12  14Feb2020            

=------------------------------------------------------------------------------=
   JOB DONE.
=------------------------------------------------------------------------------=
