
     Program PWSCF v.6.3MaX starts on 14Feb2020 at  8:46:27 

     This program is part of the open-source Quantum ESPRESSO suite
     for quantum simulation of materials; please cite
         "P. Giannozzi et al., J. Phys.:Condens. Matter 21 395502 (2009);
         "P. Giannozzi et al., J. Phys.:Condens. Matter 29 465901 (2017);
          URL http://www.quantum-espresso.org", 
     in publications or presentations arising from this work. More details at
     http://www.quantum-espresso.org/quote

     Parallel version (MPI), running on     2 processors

     MPI processes distributed on     1 nodes
     R & G space division:  proc/nbgrp/npool/nimage =       2
     Waiting for input...
     Reading input from standard input

     Current dimensions of program PWSCF are:
     Max number of different atomic species (ntypx) = 10
     Max number of k-points (npk) =  40000
     Max angular momentum in pseudopotentials (lmaxx) =  3

     Subspace diagonalization in iterative solution of the eigenvalue problem:
     a serial algorithm will be used

 
     Parallelization info
     --------------------
     sticks:   dense  smooth     PW     G-vecs:    dense   smooth      PW
     Min        3392    3392    878               210674   210674   27756
     Max        3393    3393    879               210675   210675   27759
     Sum        6785    6785   1757               421349   421349   55515
 


     bravais-lattice index     =            0
     lattice parameter (alat)  =      20.6591  a.u.
     unit-cell volume          =    8817.2783 (a.u.)^3
     number of atoms/cell      =           64
     number of atomic types    =            1
     number of electrons       =       256.00
     number of Kohn-Sham states=          154
     kinetic-energy cutoff     =      50.0000  Ry
     charge density cutoff     =     200.0000  Ry
     convergence threshold     =      1.0E-08
     mixing beta               =       0.7000
     number of iterations used =            8  plain     mixing
     Exchange-correlation      = PBE ( 1  4  3  4 0 0)

     celldm(1)=  20.659106  celldm(2)=   0.000000  celldm(3)=   0.000000
     celldm(4)=   0.000000  celldm(5)=   0.000000  celldm(6)=   0.000000

     crystal axes: (cart. coord. in units of alat)
               a(1) = (   1.000000   0.000000   0.000000 )  
               a(2) = (   0.000000   1.000000   0.000000 )  
               a(3) = (   0.000000   0.000000   1.000000 )  

     reciprocal axes: (cart. coord. in units 2 pi/alat)
               b(1) = (  1.000000  0.000000  0.000000 )  
               b(2) = (  0.000000  1.000000  0.000000 )  
               b(3) = (  0.000000  0.000000  1.000000 )  


     PseudoPot. # 1 for Si read from file:
     ~/kedar/softwares/SSSP_precision_pseudos/Si.pbe-n-rrkjus_psl.1.0.0.UPF
     MD5 check sum: Not computed, couldn't open file
     Pseudo is Ultrasoft + core correction, Zval =  4.0
     Generated using "atomic" code by A. Dal Corso v.5.1
     Using radial grid of 1141 points,  6 beta functions with: 
                l(1) =   0
                l(2) =   0
                l(3) =   1
                l(4) =   1
                l(5) =   2
                l(6) =   2
     Q(r) pseudized with 0 coefficients 


     atomic species   valence    mass     pseudopotential
        Si             4.00    28.08550     Si( 1.00)

     No symmetry found



   Cartesian axes

     site n.     atom                  positions (alat units)
         1           Si  tau(   1) = (   0.4404043   0.4375000   0.4375000  )
         2           Si  tau(   2) = (   0.9375000   0.4375000   0.4375000  )
         3           Si  tau(   3) = (   0.4375000   0.9375000   0.4375000  )
         4           Si  tau(   4) = (   0.9375000   0.9375000   0.4375000  )
         5           Si  tau(   5) = (   0.4375000   0.4375000   0.9375000  )
         6           Si  tau(   6) = (   0.9375000   0.4375000   0.9375000  )
         7           Si  tau(   7) = (   0.4375000   0.9375000   0.9375000  )
         8           Si  tau(   8) = (   0.9375000   0.9375000   0.9375000  )
         9           Si  tau(   9) = (   0.4375000   0.1875000   0.1875000  )
        10           Si  tau(  10) = (   0.9375000   0.1875000   0.1875000  )
        11           Si  tau(  11) = (   0.4375000   0.6875000   0.1875000  )
        12           Si  tau(  12) = (   0.9375000   0.6845957   0.1875000  )
        13           Si  tau(  13) = (   0.4375000   0.1875000   0.6875000  )
        14           Si  tau(  14) = (   0.9375000   0.1875000   0.6875000  )
        15           Si  tau(  15) = (   0.4375000   0.6875000   0.6875000  )
        16           Si  tau(  16) = (   0.9375000   0.6875000   0.6875000  )
        17           Si  tau(  17) = (   0.1875000   0.4375000   0.1875000  )
        18           Si  tau(  18) = (   0.6875000   0.4375000   0.1875000  )
        19           Si  tau(  19) = (   0.1875000   0.9375000   0.1875000  )
        20           Si  tau(  20) = (   0.6875000   0.9375000   0.1875000  )
        21           Si  tau(  21) = (   0.1875000   0.4375000   0.6875000  )
        22           Si  tau(  22) = (   0.6875000   0.4375000   0.6875000  )
        23           Si  tau(  23) = (   0.1875000   0.9375000   0.6875000  )
        24           Si  tau(  24) = (   0.6875000   0.9375000   0.6875000  )
        25           Si  tau(  25) = (   0.1875000   0.1875000   0.4375000  )
        26           Si  tau(  26) = (   0.6875000   0.1875000   0.4375000  )
        27           Si  tau(  27) = (   0.1875000   0.6875000   0.4375000  )
        28           Si  tau(  28) = (   0.6875000   0.6875000   0.4375000  )
        29           Si  tau(  29) = (   0.1875000   0.1875000   0.9375000  )
        30           Si  tau(  30) = (   0.6875000   0.1875000   0.9375000  )
        31           Si  tau(  31) = (   0.1875000   0.6875000   0.9375000  )
        32           Si  tau(  32) = (   0.6875000   0.6875000   0.9375000  )
        33           Si  tau(  33) = (   0.0625000   0.0625000   0.0625000  )
        34           Si  tau(  34) = (   0.5625000   0.0625000   0.0625000  )
        35           Si  tau(  35) = (   0.0625000   0.5625000   0.0625000  )
        36           Si  tau(  36) = (   0.5625000   0.5625000   0.0625000  )
        37           Si  tau(  37) = (   0.0625000   0.0625000   0.5625000  )
        38           Si  tau(  38) = (   0.5625000   0.0625000   0.5625000  )
        39           Si  tau(  39) = (   0.0625000   0.5625000   0.5625000  )
        40           Si  tau(  40) = (   0.5625000   0.5625000   0.5625000  )
        41           Si  tau(  41) = (   0.0625000   0.3125000   0.3125000  )
        42           Si  tau(  42) = (   0.5625000   0.3125000   0.3125000  )
        43           Si  tau(  43) = (   0.0625000   0.8125000   0.3125000  )
        44           Si  tau(  44) = (   0.5625000   0.8125000   0.3125000  )
        45           Si  tau(  45) = (   0.0625000   0.3125000   0.8125000  )
        46           Si  tau(  46) = (   0.5625000   0.3125000   0.8125000  )
        47           Si  tau(  47) = (   0.0625000   0.8125000   0.8125000  )
        48           Si  tau(  48) = (   0.5625000   0.8125000   0.8125000  )
        49           Si  tau(  49) = (   0.3125000   0.0625000   0.3125000  )
        50           Si  tau(  50) = (   0.8125000   0.0625000   0.3125000  )
        51           Si  tau(  51) = (   0.3125000   0.5625000   0.3125000  )
        52           Si  tau(  52) = (   0.8125000   0.5625000   0.3125000  )
        53           Si  tau(  53) = (   0.3125000   0.0625000   0.8125000  )
        54           Si  tau(  54) = (   0.8125000   0.0625000   0.8125000  )
        55           Si  tau(  55) = (   0.3125000   0.5625000   0.8125000  )
        56           Si  tau(  56) = (   0.8125000   0.5625000   0.8125000  )
        57           Si  tau(  57) = (   0.3125000   0.3125000   0.0625000  )
        58           Si  tau(  58) = (   0.8125000   0.3125000   0.0625000  )
        59           Si  tau(  59) = (   0.3125000   0.8125000   0.0625000  )
        60           Si  tau(  60) = (   0.8125000   0.8125000   0.0625000  )
        61           Si  tau(  61) = (   0.3125000   0.3125000   0.5625000  )
        62           Si  tau(  62) = (   0.8125000   0.3125000   0.5625000  )
        63           Si  tau(  63) = (   0.3125000   0.8125000   0.5625000  )
        64           Si  tau(  64) = (   0.8125000   0.8125000   0.5625000  )

     number of k points=     4  gaussian smearing, width (Ry)=  0.0100
                       cart. coord. in units 2pi/alat
        k(    1) = (   0.2500000   0.2500000   0.2500000), wk =   0.5000000
        k(    2) = (  -0.2500000  -0.2500000   0.2500000), wk =   0.5000000
        k(    3) = (  -0.2500000   0.2500000  -0.2500000), wk =   0.5000000
        k(    4) = (   0.2500000  -0.2500000  -0.2500000), wk =   0.5000000

     Dense  grid:   421349 G-vectors     FFT dimensions: (  96,  96,  96)

     Estimated max dynamical RAM per process >       2.05 GB

     Estimated total dynamical RAM >       4.11 GB

     Check: negative/imaginary core charge=   -0.000001    0.000000

     Initial potential from superposition of free atoms

     starting charge  255.96421, renormalised to  256.00000
     Starting wfcs are  256 randomized atomic wfcs

     total cpu time spent up to now is       93.6 secs

     Self-consistent Calculation

     iteration #  1     ecut=    50.00 Ry     beta= 0.70
     Davidson diagonalization with overlap
     ethr =  1.00E-02,  avg # of iterations =  3.0

     Threshold (ethr) on eigenvalues was too large:
     Diagonalizing with lowered threshold

     Davidson diagonalization with overlap
     ethr =  6.78E-04,  avg # of iterations =  2.0

     total cpu time spent up to now is      423.4 secs

     total energy              =    -730.80271279 Ry
     Harris-Foulkes estimate   =    -731.20876030 Ry
     estimated scf accuracy    <       1.72033547 Ry

     iteration #  2     ecut=    50.00 Ry     beta= 0.70
     Davidson diagonalization with overlap
     ethr =  6.72E-04,  avg # of iterations =  1.0

     total cpu time spent up to now is      554.0 secs

     total energy              =    -730.86484076 Ry
     Harris-Foulkes estimate   =    -730.87081709 Ry
     estimated scf accuracy    <       0.08013952 Ry

     iteration #  3     ecut=    50.00 Ry     beta= 0.70
     Davidson diagonalization with overlap
     ethr =  3.13E-05,  avg # of iterations = 11.0

     total cpu time spent up to now is      807.8 secs

     total energy              =    -730.87935051 Ry
     Harris-Foulkes estimate   =    -730.88058470 Ry
     estimated scf accuracy    <       0.00274072 Ry

     iteration #  4     ecut=    50.00 Ry     beta= 0.70
     Davidson diagonalization with overlap
     ethr =  1.07E-06,  avg # of iterations =  4.8

     total cpu time spent up to now is     1017.7 secs

     total energy              =    -730.87971525 Ry
     Harris-Foulkes estimate   =    -730.88054132 Ry
     estimated scf accuracy    <       0.00238202 Ry

     iteration #  5     ecut=    50.00 Ry     beta= 0.70
     Davidson diagonalization with overlap
     ethr =  9.30E-07,  avg # of iterations =  2.0

     total cpu time spent up to now is     1177.6 secs

     total energy              =    -730.87999288 Ry
     Harris-Foulkes estimate   =    -730.88009515 Ry
     estimated scf accuracy    <       0.00029054 Ry

     iteration #  6     ecut=    50.00 Ry     beta= 0.70
     Davidson diagonalization with overlap
     ethr =  1.13E-07,  avg # of iterations =  3.0

     total cpu time spent up to now is     1344.3 secs

     total energy              =    -730.88001402 Ry
     Harris-Foulkes estimate   =    -730.88004184 Ry
     estimated scf accuracy    <       0.00006899 Ry

     iteration #  7     ecut=    50.00 Ry     beta= 0.70
     Davidson diagonalization with overlap
     ethr =  2.69E-08,  avg # of iterations =  2.0

     total cpu time spent up to now is     1504.0 secs

     total energy              =    -730.88002446 Ry
     Harris-Foulkes estimate   =    -730.88002492 Ry
     estimated scf accuracy    <       0.00000281 Ry

     iteration #  8     ecut=    50.00 Ry     beta= 0.70
     Davidson diagonalization with overlap
     ethr =  1.10E-09,  avg # of iterations =  3.0

     total cpu time spent up to now is     1685.7 secs

     total energy              =    -730.88002510 Ry
     Harris-Foulkes estimate   =    -730.88002550 Ry
     estimated scf accuracy    <       0.00000187 Ry

     iteration #  9     ecut=    50.00 Ry     beta= 0.70
     Davidson diagonalization with overlap
     ethr =  7.29E-10,  avg # of iterations =  2.0

     total cpu time spent up to now is     1830.8 secs

     total energy              =    -730.88002501 Ry
     Harris-Foulkes estimate   =    -730.88002527 Ry
     estimated scf accuracy    <       0.00000092 Ry

     iteration # 10     ecut=    50.00 Ry     beta= 0.70
     Davidson diagonalization with overlap
     ethr =  3.61E-10,  avg # of iterations =  1.0

     total cpu time spent up to now is     1982.4 secs

     total energy              =    -730.88002500 Ry
     Harris-Foulkes estimate   =    -730.88002507 Ry
     estimated scf accuracy    <       0.00000019 Ry

     iteration # 11     ecut=    50.00 Ry     beta= 0.70
     Davidson diagonalization with overlap
     ethr =  7.48E-11,  avg # of iterations =  3.0

     total cpu time spent up to now is     2214.0 secs

     total energy              =    -730.88002502 Ry
     Harris-Foulkes estimate   =    -730.88002503 Ry
     estimated scf accuracy    <       0.00000002 Ry

     iteration # 12     ecut=    50.00 Ry     beta= 0.70
     Davidson diagonalization with overlap
     ethr =  6.71E-12,  avg # of iterations =  3.0

     total cpu time spent up to now is     2439.3 secs

     End of self-consistent calculation

          k = 0.2500 0.2500 0.2500 ( 52563 PWs)   bands (ev):

    -5.6275  -5.1029  -5.0997  -5.0953  -4.6038  -4.6006  -4.5963  -4.1670
    -4.0709  -4.0678  -4.0632  -3.6600  -3.6536  -3.6533  -3.6513  -3.6486
    -3.6417  -3.4635  -3.4594  -3.4550  -2.9678  -2.9644  -2.9582  -2.5982
    -2.5942  -2.5907  -2.4335  -2.4286  -2.4277  -2.4260  -2.4235  -2.4165
    -0.8915  -0.8873  -0.8858  -0.8840  -0.8811  -0.8761  -0.7898  -0.7863
    -0.7827  -0.6731  -0.6681  -0.6628  -0.5893  -0.5826  -0.5743   0.1202
     0.1971   0.2006   0.2021   0.2054   0.2086   0.2138   1.0734   1.0786
     1.0853   1.4076   1.4118   1.4165   2.0175   2.0199   2.0222   2.0229
     2.0245   2.0274   2.0789   2.0811   2.0849   2.6311   2.6331   2.6357
     2.7313   2.7319   2.7347   2.7367   2.7412   2.7424   2.7871   2.7900
     2.7936   3.0940   3.0984   3.0993   3.1007   3.1036   3.1077   3.3616
     3.3656   3.3669   3.3752   3.3792   3.3835   3.7236   3.7279   3.7313
     3.7458   3.7502   3.7536   3.8296   3.8318   3.8360   4.0999   4.1044
     4.1063   4.1074   4.1100   4.1151   4.1433   4.1459   4.1507   4.4065
     4.4603   4.4646   4.4671   4.7040   4.7066   4.7112   4.7663   4.7717
     4.7787   4.9249   4.9337   5.2323   5.2358   5.2417   5.7122   5.7221
     6.9264   6.9307   6.9336   7.3679   7.3698   7.3740   7.5967   7.8529
     7.8561   7.8597   7.9820   7.9861   7.9900   8.1421   8.1455   8.1470
     8.1609   8.1660   8.1680   8.3907   8.3923   8.3948   8.3977   8.4004
     8.4047   8.4443

          k =-0.2500-0.2500 0.2500 ( 52563 PWs)   bands (ev):

    -5.6275  -5.1035  -5.0988  -5.0957  -4.6042  -4.5998  -4.5967  -4.1672
    -4.0713  -4.0667  -4.0640  -3.6597  -3.6536  -3.6527  -3.6507  -3.6492
    -3.6425  -3.4635  -3.4593  -3.4552  -2.9671  -2.9630  -2.9605  -2.5982
    -2.5942  -2.5907  -2.4340  -2.4292  -2.4273  -2.4255  -2.4234  -2.4164
    -0.8935  -0.8879  -0.8853  -0.8835  -0.8810  -0.8746  -0.7900  -0.7864
    -0.7828  -0.6732  -0.6681  -0.6626  -0.5873  -0.5831  -0.5758   0.1202
     0.1956   0.2006   0.2040   0.2052   0.2078   0.2142   1.0751   1.0787
     1.0835   1.4080   1.4119   1.4158   2.0170   2.0203   2.0219   2.0222
     2.0258   2.0273   2.0791   2.0812   2.0847   2.6309   2.6334   2.6355
     2.7299   2.7328   2.7359   2.7366   2.7399   2.7427   2.7860   2.7909
     2.7938   3.0930   3.0993   3.1003   3.1014   3.1027   3.1071   3.3625
     3.3643   3.3673   3.3754   3.3792   3.3834   3.7237   3.7277   3.7316
     3.7460   3.7493   3.7542   3.8291   3.8321   3.8363   4.0996   4.1046
     4.1065   4.1076   4.1088   4.1155   4.1429   4.1460   4.1513   4.4068
     4.4605   4.4636   4.4676   4.7034   4.7070   4.7113   4.7688   4.7715
     4.7765   4.9249   4.9337   5.2316   5.2360   5.2421   5.7122   5.7221
     6.9270   6.9296   6.9341   7.3659   7.3694   7.3764   7.5967   7.8523
     7.8551   7.8614   7.9821   7.9861   7.9899   8.1415   8.1445   8.1477
     8.1625   8.1639   8.1694   8.3902   8.3950   8.3966   8.4002   8.4034
     8.4444   8.6539

          k =-0.2500 0.2500-0.2500 ( 52563 PWs)   bands (ev):

    -5.6275  -5.1019  -5.1008  -5.0949  -4.6028  -4.6018  -4.5962  -4.1681
    -4.0702  -4.0691  -4.0637  -3.6567  -3.6547  -3.6527  -3.6518  -3.6516
    -3.6381  -3.4622  -3.4598  -3.4539  -2.9679  -2.9662  -2.9620  -2.5976
    -2.5960  -2.5883  -2.4312  -2.4294  -2.4277  -2.4265  -2.4251  -2.4142
    -0.8909  -0.8881  -0.8866  -0.8845  -0.8820  -0.8764  -0.7916  -0.7890
    -0.7812  -0.6743  -0.6689  -0.6662  -0.5835  -0.5809  -0.5686   0.1239
     0.1957   0.1984   0.2018   0.2040   0.2062   0.2123   1.0766   1.0805
     1.0874   1.4089   1.4132   1.4137   2.0184   2.0189   2.0211   2.0237
     2.0253   2.0263   2.0778   2.0808   2.0830   2.6331   2.6345   2.6381
     2.7293   2.7309   2.7336   2.7363   2.7393   2.7405   2.7858   2.7872
     2.7913   3.0960   3.0979   3.0994   3.1005   3.1029   3.1081   3.3622
     3.3630   3.3655   3.3751   3.3793   3.3795   3.7268   3.7282   3.7339
     3.7494   3.7518   3.7582   3.8293   3.8305   3.8339   4.1049   4.1056
     4.1067   4.1096   4.1139   4.1182   4.1430   4.1447   4.1488   4.4107
     4.4598   4.4608   4.4645   4.7031   4.7047   4.7081   4.7722   4.7748
     4.7838   4.9255   4.9306   5.2307   5.2334   5.2375   5.7119   5.7175
     6.9258   6.9279   6.9320   7.3655   7.3705   7.3732   7.5952   7.8509
     7.8552   7.8576   7.9826   7.9889   7.9908   8.1412   8.1444   8.1471
     8.1621   8.1639   8.1672   8.3921   8.3949   8.3962   8.3976   8.4039
     8.4065   8.4422

          k = 0.2500-0.2500-0.2500 ( 52563 PWs)   bands (ev):

    -5.6274  -5.1039  -5.0978  -5.0967  -4.6046  -4.5984  -4.5975  -4.1661
    -4.0716  -4.0654  -4.0640  -3.6609  -3.6565  -3.6514  -3.6486  -3.6482
    -3.6457  -3.4647  -3.4588  -3.4566  -2.9670  -2.9604  -2.9574  -2.6006
    -2.5927  -2.5908  -2.4339  -2.4314  -2.4262  -2.4239  -2.4226  -2.4198
    -0.8919  -0.8891  -0.8840  -0.8807  -0.8804  -0.8767  -0.7914  -0.7836
    -0.7814  -0.6699  -0.6674  -0.6614  -0.5910  -0.5868  -0.5812   0.1164
     0.1963   0.2018   0.2044   0.2079   0.2124   0.2138   1.0723   1.0764
     1.0813   1.4088   1.4124   1.4147   2.0177   2.0208   2.0223   2.0233
     2.0239   2.0271   2.0801   2.0835   2.0849   2.6284   2.6321   2.6334
     2.7326   2.7341   2.7361   2.7377   2.7406   2.7447   2.7903   2.7915
     2.7959   3.0945   3.0965   3.0999   3.1023   3.1036   3.1060   3.3642
     3.3667   3.3673   3.3772   3.3808   3.3833   3.7217   3.7263   3.7288
     3.7424   3.7481   3.7499   3.8309   3.8327   3.8373   4.0967   4.1010
     4.1039   4.1070   4.1078   4.1100   4.1451   4.1469   4.1521   4.4027
     4.4639   4.4669   4.4679   4.7061   4.7080   4.7137   4.7633   4.7674
     4.7714   4.9280   4.9331   5.2353   5.2379   5.2450   5.7167   5.7224
     6.9286   6.9326   6.9346   7.3669   7.3714   7.3756   7.5982   7.8541
     7.8588   7.8609   7.9814   7.9831   7.9892   8.1426   8.1453   8.1480
     8.1627   8.1664   8.1682   8.3876   8.3914   8.3937   8.3964   8.3987
     8.4016   8.4468

     the Fermi energy is     6.3199 ev

!    total energy              =    -730.88002502 Ry
     Harris-Foulkes estimate   =    -730.88002502 Ry
     estimated scf accuracy    <          4.0E-09 Ry

     The total energy is the sum of the following terms:

     one-electron contribution =     160.47284334 Ry
     hartree contribution      =      35.78735470 Ry
     xc contribution           =    -393.13399080 Ry
     ewald contribution        =    -534.00623225 Ry
     smearing contrib. (-TS)   =      -0.00000000 Ry

     convergence has been achieved in  12 iterations

     Forces acting on atoms (cartesian axes, Ry/au):

     atom    1 type  1   force =    -0.01606346   -0.00004540   -0.00007451
     atom    2 type  1   force =    -0.00009002   -0.00023628    0.00022932
     atom    3 type  1   force =     0.00004626   -0.00004433    0.00007737
     atom    4 type  1   force =    -0.00011801   -0.00023058   -0.00022404
     atom    5 type  1   force =     0.00006427   -0.00004361    0.00007476
     atom    6 type  1   force =     0.00010767   -0.00023797   -0.00022914
     atom    7 type  1   force =    -0.00046589   -0.00004305   -0.00007734
     atom    8 type  1   force =     0.00013578   -0.00023113    0.00022440
     atom    9 type  1   force =    -0.00053056    0.00012040    0.00011486
     atom   10 type  1   force =     0.00000144   -0.00001466    0.00000827
     atom   11 type  1   force =    -0.00052658    0.00005504   -0.00010996
     atom   12 type  1   force =     0.00000401    0.01606376   -0.00000928
     atom   13 type  1   force =    -0.00052428   -0.00013589    0.00010973
     atom   14 type  1   force =     0.00000165   -0.00000307    0.00001000
     atom   15 type  1   force =    -0.00052950    0.00036168   -0.00011513
     atom   16 type  1   force =     0.00000026   -0.00006488   -0.00000891
     atom   17 type  1   force =     0.00045959   -0.00034666    0.00010979
     atom   18 type  1   force =     0.00000824   -0.00035157   -0.00011502
     atom   19 type  1   force =    -0.00018002   -0.00024178   -0.00018794
     atom   20 type  1   force =     0.00026823   -0.00024018    0.00018561
     atom   21 type  1   force =     0.00015585    0.00006607   -0.00023386
     atom   22 type  1   force =     0.00031249    0.00006962    0.00023820
     atom   23 type  1   force =     0.00012161   -0.00003367    0.00006787
     atom   24 type  1   force =    -0.00003351   -0.00003397   -0.00006597
     atom   25 type  1   force =     0.00024098    0.00022189   -0.00010021
     atom   26 type  1   force =     0.00024551   -0.00023097   -0.00012218
     atom   27 type  1   force =     0.00034123    0.00030026    0.00021909
     atom   28 type  1   force =     0.00035199    0.00076026    0.00000080
     atom   29 type  1   force =     0.00003469   -0.00007841   -0.00000033
     atom   30 type  1   force =     0.00003484    0.00007152   -0.00002052
     atom   31 type  1   force =    -0.00007073    0.00060763    0.00012528
     atom   32 type  1   force =    -0.00006616    0.00045079   -0.00010141
     atom   33 type  1   force =     0.00001732    0.00004047   -0.00000693
     atom   34 type  1   force =     0.00028348    0.00000066    0.00000008
     atom   35 type  1   force =     0.00276323   -0.00393059   -0.00270962
     atom   36 type  1   force =    -0.00002130    0.00010857   -0.00001202
     atom   37 type  1   force =     0.00005430   -0.00000114    0.00000264
     atom   38 type  1   force =    -0.00002758    0.00005807    0.00001937
     atom   39 type  1   force =     0.00003884    0.00009548   -0.00000122
     atom   40 type  1   force =     0.00398652    0.00247777    0.00270797
     atom   41 type  1   force =    -0.00004683   -0.00002630   -0.00007453
     atom   42 type  1   force =     0.00393170   -0.00276523   -0.00276363
     atom   43 type  1   force =    -0.00248361   -0.00386626   -0.00253968
     atom   44 type  1   force =    -0.00009529    0.00001925   -0.00009899
     atom   45 type  1   force =    -0.00000269   -0.00005606   -0.00005163
     atom   46 type  1   force =    -0.00008922   -0.00003002   -0.00007012
     atom   47 type  1   force =    -0.00007053    0.00002662   -0.00006614
     atom   48 type  1   force =     0.00023120   -0.00028238   -0.00005627
     atom   49 type  1   force =    -0.00008110   -0.00006296    0.00007759
     atom   50 type  1   force =    -0.00000890   -0.00001728    0.00006661
     atom   51 type  1   force =     0.00380070   -0.00245063    0.00255962
     atom   52 type  1   force =    -0.00274539   -0.00399454    0.00277381
     atom   53 type  1   force =     0.00022459   -0.00000881    0.00005838
     atom   54 type  1   force =    -0.00004816   -0.00005687    0.00005569
     atom   55 type  1   force =    -0.00008433   -0.00030968    0.00006450
     atom   56 type  1   force =    -0.00002085    0.00003012    0.00006393
     atom   57 type  1   force =    -0.00003041    0.00002174   -0.00000764
     atom   58 type  1   force =     0.00006693    0.00003882    0.00000982
     atom   59 type  1   force =     0.00029020    0.00008457    0.00002335
     atom   60 type  1   force =     0.00249080   -0.00380820    0.00247922
     atom   61 type  1   force =     0.00387063    0.00253051   -0.00247958
     atom   62 type  1   force =     0.00001743    0.00000799   -0.00000920
     atom   63 type  1   force =    -0.00002749   -0.00021791   -0.00002221
     atom   64 type  1   force =     0.00007794    0.00008336    0.00000725

     Total force =     0.027429     Total SCF correction =     0.000115

     Writing output data file pwscf.save/
 
     init_run     :     42.17s CPU     92.88s WALL (       1 calls)
     electrons    :   1073.92s CPU   2345.72s WALL (       1 calls)
     forces       :     19.40s CPU     52.74s WALL (       1 calls)

     Called by init_run:
     wfcinit      :     40.56s CPU     89.15s WALL (       1 calls)
     potinit      :      0.32s CPU      0.67s WALL (       1 calls)
     hinit0       :      0.41s CPU      0.83s WALL (       1 calls)

     Called by electrons:
     c_bands      :    914.57s CPU   1988.11s WALL (      13 calls)
     sum_band     :    144.71s CPU    318.35s WALL (      13 calls)
     v_of_rho     :      3.55s CPU      7.51s WALL (      13 calls)
     newd         :     11.05s CPU     31.78s WALL (      13 calls)
     mix_rho      :      0.96s CPU      2.14s WALL (      13 calls)

     Called by c_bands:
     init_us_2    :     11.60s CPU     24.62s WALL (     112 calls)
     cegterg      :    822.53s CPU   1792.57s WALL (      52 calls)

     Called by sum_band:
     sum_band:bec :      0.07s CPU      0.07s WALL (      52 calls)
     addusdens    :     11.62s CPU     32.11s WALL (      13 calls)

     Called by *egterg:
     h_psi        :    599.66s CPU   1307.77s WALL (     219 calls)
     s_psi        :    127.33s CPU    270.80s WALL (     219 calls)
     g_psi        :      1.19s CPU      2.45s WALL (     163 calls)
     cdiaghg      :     11.38s CPU     24.57s WALL (     211 calls)

     Called by h_psi:
     h_psi:pot    :    597.60s CPU   1298.95s WALL (     219 calls)
     h_psi:calbec :    128.76s CPU    275.37s WALL (     219 calls)
     vloc_psi     :    341.07s CPU    753.28s WALL (     219 calls)
     add_vuspsi   :    127.77s CPU    270.30s WALL (     219 calls)

     General routines
     calbec       :    189.93s CPU    413.93s WALL (     287 calls)
     fft          :      2.92s CPU      6.46s WALL (     156 calls)
     ffts         :      0.19s CPU      0.39s WALL (      13 calls)
     fftw         :    344.59s CPU    805.31s WALL (   50692 calls)
 
     Parallel routines
     fft_scatt_xy :     68.59s CPU    100.65s WALL (   50861 calls)
     fft_scatt_yz :     87.91s CPU    409.98s WALL (   50861 calls)
 
     PWSCF        : 18m56.16s CPU    41m33.83s WALL

 
   This run was terminated on:   9:28: 1  14Feb2020            

=------------------------------------------------------------------------------=
   JOB DONE.
=------------------------------------------------------------------------------=
