
     Program PWSCF v.6.3MaX starts on 14Feb2020 at 17:30: 8 

     This program is part of the open-source Quantum ESPRESSO suite
     for quantum simulation of materials; please cite
         "P. Giannozzi et al., J. Phys.:Condens. Matter 21 395502 (2009);
         "P. Giannozzi et al., J. Phys.:Condens. Matter 29 465901 (2017);
          URL http://www.quantum-espresso.org", 
     in publications or presentations arising from this work. More details at
     http://www.quantum-espresso.org/quote

     Parallel version (MPI), running on     2 processors

     MPI processes distributed on     1 nodes
     R & G space division:  proc/nbgrp/npool/nimage =       2
     Waiting for input...
     Reading input from standard input

     Current dimensions of program PWSCF are:
     Max number of different atomic species (ntypx) = 10
     Max number of k-points (npk) =  40000
     Max angular momentum in pseudopotentials (lmaxx) =  3

     Subspace diagonalization in iterative solution of the eigenvalue problem:
     a serial algorithm will be used

 
     Parallelization info
     --------------------
     sticks:   dense  smooth     PW     G-vecs:    dense   smooth      PW
     Min        3392    3392    878               210674   210674   27756
     Max        3393    3393    879               210675   210675   27759
     Sum        6785    6785   1757               421349   421349   55515
 


     bravais-lattice index     =            0
     lattice parameter (alat)  =      20.6591  a.u.
     unit-cell volume          =    8817.2783 (a.u.)^3
     number of atoms/cell      =           64
     number of atomic types    =            1
     number of electrons       =       256.00
     number of Kohn-Sham states=          154
     kinetic-energy cutoff     =      50.0000  Ry
     charge density cutoff     =     200.0000  Ry
     convergence threshold     =      1.0E-08
     mixing beta               =       0.7000
     number of iterations used =            8  plain     mixing
     Exchange-correlation      = PBE ( 1  4  3  4 0 0)

     celldm(1)=  20.659106  celldm(2)=   0.000000  celldm(3)=   0.000000
     celldm(4)=   0.000000  celldm(5)=   0.000000  celldm(6)=   0.000000

     crystal axes: (cart. coord. in units of alat)
               a(1) = (   1.000000   0.000000   0.000000 )  
               a(2) = (   0.000000   1.000000   0.000000 )  
               a(3) = (   0.000000   0.000000   1.000000 )  

     reciprocal axes: (cart. coord. in units 2 pi/alat)
               b(1) = (  1.000000  0.000000  0.000000 )  
               b(2) = (  0.000000  1.000000  0.000000 )  
               b(3) = (  0.000000  0.000000  1.000000 )  


     PseudoPot. # 1 for Si read from file:
     ~/kedar/softwares/SSSP_precision_pseudos/Si.pbe-n-rrkjus_psl.1.0.0.UPF
     MD5 check sum: Not computed, couldn't open file
     Pseudo is Ultrasoft + core correction, Zval =  4.0
     Generated using "atomic" code by A. Dal Corso v.5.1
     Using radial grid of 1141 points,  6 beta functions with: 
                l(1) =   0
                l(2) =   0
                l(3) =   1
                l(4) =   1
                l(5) =   2
                l(6) =   2
     Q(r) pseudized with 0 coefficients 


     atomic species   valence    mass     pseudopotential
        Si             4.00    28.08550     Si( 1.00)

     No symmetry found



   Cartesian axes

     site n.     atom                  positions (alat units)
         1           Si  tau(   1) = (   0.4404043   0.4375000   0.4375000  )
         2           Si  tau(   2) = (   0.9375000   0.4375000   0.4375000  )
         3           Si  tau(   3) = (   0.4375000   0.9375000   0.4375000  )
         4           Si  tau(   4) = (   0.9375000   0.9375000   0.4375000  )
         5           Si  tau(   5) = (   0.4375000   0.4375000   0.9375000  )
         6           Si  tau(   6) = (   0.9375000   0.4375000   0.9375000  )
         7           Si  tau(   7) = (   0.4375000   0.9375000   0.9375000  )
         8           Si  tau(   8) = (   0.9375000   0.9375000   0.9375000  )
         9           Si  tau(   9) = (   0.4375000   0.1875000   0.1875000  )
        10           Si  tau(  10) = (   0.9375000   0.1875000   0.1875000  )
        11           Si  tau(  11) = (   0.4375000   0.6875000   0.1875000  )
        12           Si  tau(  12) = (   0.9375000   0.6875000   0.1875000  )
        13           Si  tau(  13) = (   0.4375000   0.1875000   0.6875000  )
        14           Si  tau(  14) = (   0.9375000   0.1875000   0.6875000  )
        15           Si  tau(  15) = (   0.4375000   0.6875000   0.6875000  )
        16           Si  tau(  16) = (   0.9375000   0.6875000   0.6875000  )
        17           Si  tau(  17) = (   0.1875000   0.4375000   0.1875000  )
        18           Si  tau(  18) = (   0.6875000   0.4375000   0.1875000  )
        19           Si  tau(  19) = (   0.1875000   0.9375000   0.1875000  )
        20           Si  tau(  20) = (   0.6875000   0.9375000   0.1875000  )
        21           Si  tau(  21) = (   0.1875000   0.4375000   0.6875000  )
        22           Si  tau(  22) = (   0.6875000   0.4375000   0.6875000  )
        23           Si  tau(  23) = (   0.1875000   0.9375000   0.6875000  )
        24           Si  tau(  24) = (   0.6875000   0.9375000   0.6875000  )
        25           Si  tau(  25) = (   0.1875000   0.1875000   0.4375000  )
        26           Si  tau(  26) = (   0.6875000   0.1875000   0.4375000  )
        27           Si  tau(  27) = (   0.1875000   0.6875000   0.4375000  )
        28           Si  tau(  28) = (   0.6875000   0.6875000   0.4375000  )
        29           Si  tau(  29) = (   0.1875000   0.1875000   0.9375000  )
        30           Si  tau(  30) = (   0.6875000   0.1875000   0.9375000  )
        31           Si  tau(  31) = (   0.1875000   0.6875000   0.9375000  )
        32           Si  tau(  32) = (   0.6875000   0.6875000   0.9375000  )
        33           Si  tau(  33) = (   0.0625000   0.0625000   0.0625000  )
        34           Si  tau(  34) = (   0.5625000   0.0625000   0.0625000  )
        35           Si  tau(  35) = (   0.0625000   0.5625000   0.0625000  )
        36           Si  tau(  36) = (   0.5625000   0.5625000   0.0625000  )
        37           Si  tau(  37) = (   0.0625000   0.0625000   0.5625000  )
        38           Si  tau(  38) = (   0.5625000   0.0625000   0.5625000  )
        39           Si  tau(  39) = (   0.0625000   0.5654043   0.5625000  )
        40           Si  tau(  40) = (   0.5625000   0.5625000   0.5625000  )
        41           Si  tau(  41) = (   0.0625000   0.3125000   0.3125000  )
        42           Si  tau(  42) = (   0.5625000   0.3125000   0.3125000  )
        43           Si  tau(  43) = (   0.0625000   0.8125000   0.3125000  )
        44           Si  tau(  44) = (   0.5625000   0.8125000   0.3125000  )
        45           Si  tau(  45) = (   0.0625000   0.3125000   0.8125000  )
        46           Si  tau(  46) = (   0.5625000   0.3125000   0.8125000  )
        47           Si  tau(  47) = (   0.0625000   0.8125000   0.8125000  )
        48           Si  tau(  48) = (   0.5625000   0.8125000   0.8125000  )
        49           Si  tau(  49) = (   0.3125000   0.0625000   0.3125000  )
        50           Si  tau(  50) = (   0.8125000   0.0625000   0.3125000  )
        51           Si  tau(  51) = (   0.3125000   0.5625000   0.3125000  )
        52           Si  tau(  52) = (   0.8125000   0.5625000   0.3125000  )
        53           Si  tau(  53) = (   0.3125000   0.0625000   0.8125000  )
        54           Si  tau(  54) = (   0.8125000   0.0625000   0.8125000  )
        55           Si  tau(  55) = (   0.3125000   0.5625000   0.8125000  )
        56           Si  tau(  56) = (   0.8125000   0.5625000   0.8125000  )
        57           Si  tau(  57) = (   0.3125000   0.3125000   0.0625000  )
        58           Si  tau(  58) = (   0.8125000   0.3125000   0.0625000  )
        59           Si  tau(  59) = (   0.3125000   0.8125000   0.0625000  )
        60           Si  tau(  60) = (   0.8125000   0.8125000   0.0625000  )
        61           Si  tau(  61) = (   0.3125000   0.3125000   0.5625000  )
        62           Si  tau(  62) = (   0.8125000   0.3125000   0.5625000  )
        63           Si  tau(  63) = (   0.3125000   0.8125000   0.5625000  )
        64           Si  tau(  64) = (   0.8125000   0.8125000   0.5625000  )

     number of k points=     4  gaussian smearing, width (Ry)=  0.0100
                       cart. coord. in units 2pi/alat
        k(    1) = (   0.2500000   0.2500000   0.2500000), wk =   0.5000000
        k(    2) = (  -0.2500000  -0.2500000   0.2500000), wk =   0.5000000
        k(    3) = (  -0.2500000   0.2500000  -0.2500000), wk =   0.5000000
        k(    4) = (   0.2500000  -0.2500000  -0.2500000), wk =   0.5000000

     Dense  grid:   421349 G-vectors     FFT dimensions: (  96,  96,  96)

     Estimated max dynamical RAM per process >       2.05 GB

     Estimated total dynamical RAM >       4.11 GB

     Check: negative/imaginary core charge=   -0.000001    0.000000

     Initial potential from superposition of free atoms

     starting charge  255.96421, renormalised to  256.00000
     Starting wfcs are  256 randomized atomic wfcs

     total cpu time spent up to now is       89.6 secs

     Self-consistent Calculation

     iteration #  1     ecut=    50.00 Ry     beta= 0.70
     Davidson diagonalization with overlap
     ethr =  1.00E-02,  avg # of iterations =  3.0

     Threshold (ethr) on eigenvalues was too large:
     Diagonalizing with lowered threshold

     Davidson diagonalization with overlap
     ethr =  6.78E-04,  avg # of iterations =  2.0

     total cpu time spent up to now is      416.2 secs

     total energy              =    -730.80268762 Ry
     Harris-Foulkes estimate   =    -731.20873848 Ry
     estimated scf accuracy    <       1.72033047 Ry

     iteration #  2     ecut=    50.00 Ry     beta= 0.70
     Davidson diagonalization with overlap
     ethr =  6.72E-04,  avg # of iterations =  1.0

     total cpu time spent up to now is      532.6 secs

     total energy              =    -730.86483509 Ry
     Harris-Foulkes estimate   =    -730.87081907 Ry
     estimated scf accuracy    <       0.08014415 Ry

     iteration #  3     ecut=    50.00 Ry     beta= 0.70
     Davidson diagonalization with overlap
     ethr =  3.13E-05,  avg # of iterations =  9.5

     total cpu time spent up to now is      743.1 secs

     total energy              =    -730.87932417 Ry
     Harris-Foulkes estimate   =    -730.88060237 Ry
     estimated scf accuracy    <       0.00278733 Ry

     iteration #  4     ecut=    50.00 Ry     beta= 0.70
     Davidson diagonalization with overlap
     ethr =  1.09E-06,  avg # of iterations =  4.5

     total cpu time spent up to now is      870.7 secs

     total energy              =    -730.87965820 Ry
     Harris-Foulkes estimate   =    -730.88061812 Ry
     estimated scf accuracy    <       0.00268224 Ry

     iteration #  5     ecut=    50.00 Ry     beta= 0.70
     Davidson diagonalization with overlap
     ethr =  1.05E-06,  avg # of iterations =  2.0

     total cpu time spent up to now is      956.1 secs

     total energy              =    -730.87999743 Ry
     Harris-Foulkes estimate   =    -730.88008973 Ry
     estimated scf accuracy    <       0.00025627 Ry

     iteration #  6     ecut=    50.00 Ry     beta= 0.70
     Davidson diagonalization with overlap
     ethr =  1.00E-07,  avg # of iterations =  3.0

     total cpu time spent up to now is     1079.4 secs

     total energy              =    -730.88001572 Ry
     Harris-Foulkes estimate   =    -730.88004537 Ry
     estimated scf accuracy    <       0.00007856 Ry

     iteration #  7     ecut=    50.00 Ry     beta= 0.70
     Davidson diagonalization with overlap
     ethr =  3.07E-08,  avg # of iterations =  2.0

     total cpu time spent up to now is     1214.6 secs

     total energy              =    -730.88002711 Ry
     Harris-Foulkes estimate   =    -730.88002754 Ry
     estimated scf accuracy    <       0.00000285 Ry

     iteration #  8     ecut=    50.00 Ry     beta= 0.70
     Davidson diagonalization with overlap
     ethr =  1.11E-09,  avg # of iterations =  3.0

     total cpu time spent up to now is     1381.8 secs

     total energy              =    -730.88002786 Ry
     Harris-Foulkes estimate   =    -730.88002830 Ry
     estimated scf accuracy    <       0.00000198 Ry

     iteration #  9     ecut=    50.00 Ry     beta= 0.70
     Davidson diagonalization with overlap
     ethr =  7.74E-10,  avg # of iterations =  2.0

     total cpu time spent up to now is     1468.9 secs

     total energy              =    -730.88002777 Ry
     Harris-Foulkes estimate   =    -730.88002799 Ry
     estimated scf accuracy    <       0.00000076 Ry

     iteration # 10     ecut=    50.00 Ry     beta= 0.70
     Davidson diagonalization with overlap
     ethr =  2.98E-10,  avg # of iterations =  1.5

     total cpu time spent up to now is     1584.9 secs

     total energy              =    -730.88002776 Ry
     Harris-Foulkes estimate   =    -730.88002782 Ry
     estimated scf accuracy    <       0.00000016 Ry

     iteration # 11     ecut=    50.00 Ry     beta= 0.70
     Davidson diagonalization with overlap
     ethr =  6.16E-11,  avg # of iterations =  3.0

     total cpu time spent up to now is     1722.9 secs

     total energy              =    -730.88002778 Ry
     Harris-Foulkes estimate   =    -730.88002779 Ry
     estimated scf accuracy    <       0.00000002 Ry

     iteration # 12     ecut=    50.00 Ry     beta= 0.70
     Davidson diagonalization with overlap
     ethr =  5.99E-12,  avg # of iterations =  3.0

     total cpu time spent up to now is     1894.0 secs

     End of self-consistent calculation

          k = 0.2500 0.2500 0.2500 ( 52563 PWs)   bands (ev):

    -5.6275  -5.1035  -5.0993  -5.0952  -4.6044  -4.6001  -4.5962  -4.1671
    -4.0716  -4.0673  -4.0632  -3.6610  -3.6541  -3.6513  -3.6493  -3.6487
    -3.6440  -3.4636  -3.4594  -3.4551  -2.9687  -2.9627  -2.9590  -2.5980
    -2.5942  -2.5908  -2.4359  -2.4286  -2.4260  -2.4243  -2.4236  -2.4177
    -0.8945  -0.8876  -0.8840  -0.8826  -0.8810  -0.8761  -0.7900  -0.7865
    -0.7826  -0.6732  -0.6679  -0.6628  -0.5899  -0.5812  -0.5750   0.1201
     0.1952   0.2001   0.2044   0.2072   0.2084   0.2123   1.0730   1.0798
     1.0843   1.4073   1.4122   1.4163   2.0180   2.0196   2.0214   2.0227
     2.0254   2.0278   2.0779   2.0820   2.0848   2.6315   2.6333   2.6350
     2.7305   2.7327   2.7348   2.7373   2.7403   2.7429   2.7858   2.7899
     2.7947   3.0940   3.0976   3.1009   3.1016   3.1029   3.1066   3.3616
     3.3650   3.3671   3.3752   3.3799   3.3833   3.7242   3.7278   3.7311
     3.7473   3.7499   3.7523   3.8287   3.8334   3.8353   4.0983   4.1049
     4.1067   4.1079   4.1099   4.1149   4.1423   4.1479   4.1499   4.4068
     4.4607   4.4638   4.4673   4.7029   4.7079   4.7110   4.7663   4.7723
     4.7782   4.9249   4.9336   5.2308   5.2375   5.2414   5.7122   5.7221
     6.9264   6.9303   6.9340   7.3648   7.3722   7.3747   7.5967   7.8511
     7.8575   7.8602   7.9821   7.9860   7.9899   8.1407   8.1449   8.1482
     8.1614   8.1650   8.1692   8.3901   8.3934   8.3978   8.3996   8.4022
     8.4440   8.6528

          k =-0.2500-0.2500 0.2500 ( 52563 PWs)   bands (ev):

    -5.6275  -5.1031  -5.1000  -5.0949  -4.6039  -4.6009  -4.5959  -4.1671
    -4.0710  -4.0682  -4.0628  -3.6602  -3.6536  -3.6533  -3.6501  -3.6485
    -3.6429  -3.4635  -3.4594  -3.4551  -2.9676  -2.9646  -2.9582  -2.5982
    -2.5942  -2.5907  -2.4347  -2.4286  -2.4277  -2.4245  -2.4228  -2.4176
    -0.8939  -0.8879  -0.8856  -0.8825  -0.8800  -0.8756  -0.7899  -0.7867
    -0.7826  -0.6732  -0.6681  -0.6627  -0.5895  -0.5820  -0.5745   0.1202
     0.1963   0.1993   0.2026   0.2060   0.2098   0.2135   1.0735   1.0787
     1.0849   1.4076   1.4117   1.4165   2.0176   2.0200   2.0216   2.0229
     2.0241   2.0284   2.0782   2.0814   2.0850   2.6310   2.6332   2.6356
     2.7300   2.7322   2.7357   2.7378   2.7409   2.7417   2.7862   2.7896
     2.7948   3.0950   3.0976   3.0996   3.1003   3.1030   3.1083   3.3627
     3.3649   3.3666   3.3753   3.3792   3.3834   3.7235   3.7282   3.7307
     3.7460   3.7498   3.7544   3.8291   3.8321   3.8361   4.0991   4.1048
     4.1060   4.1078   4.1095   4.1156   4.1428   4.1463   4.1508   4.4066
     4.4616   4.4643   4.4661   4.7034   4.7069   4.7115   4.7665   4.7718
     4.7784   4.9249   4.9336   5.2313   5.2363   5.2422   5.7122   5.7221
     6.9270   6.9301   6.9337   7.3649   7.3715   7.3751   7.5967   7.8511
     7.8575   7.8602   7.9819   7.9861   7.9899   8.1404   8.1455   8.1480
     8.1632   8.1650   8.1674   8.3911   8.3929   8.3945   8.3976   8.4002
     8.4044   8.4443

          k =-0.2500 0.2500-0.2500 ( 52563 PWs)   bands (ev):

    -5.6275  -5.1019  -5.1008  -5.0949  -4.6029  -4.6020  -4.5959  -4.1682
    -4.0703  -4.0693  -4.0634  -3.6556  -3.6548  -3.6540  -3.6522  -3.6451
    -3.6438  -3.4622  -3.4593  -3.4544  -2.9685  -2.9670  -2.9606  -2.5974
    -2.5942  -2.5903  -2.4310  -2.4297  -2.4281  -2.4271  -2.4211  -2.4173
    -0.8914  -0.8891  -0.8869  -0.8852  -0.8799  -0.8758  -0.7909  -0.7869
    -0.7842  -0.6738  -0.6681  -0.6671  -0.5831  -0.5780  -0.5721   0.1239
     0.1957   0.1991   0.2003   0.2033   0.2093   0.2107   1.0768   1.0825
     1.0852   1.4091   1.4122   1.4144   2.0186   2.0197   2.0218   2.0229
     2.0243   2.0267   2.0783   2.0796   2.0836   2.6333   2.6356   2.6368
     2.7285   2.7312   2.7348   2.7372   2.7385   2.7397   2.7850   2.7878
     2.7911   3.0953   3.0977   3.0991   3.1009   3.1050   3.1066   3.3620
     3.3631   3.3657   3.3755   3.3778   3.3806   3.7269   3.7284   3.7336
     3.7495   3.7530   3.7567   3.8277   3.8318   3.8344   4.1046   4.1060
     4.1079   4.1099   4.1121   4.1188   4.1412   4.1458   4.1491   4.4105
     4.4598   4.4608   4.4643   4.7013   4.7061   4.7084   4.7724   4.7776
     4.7811   4.9255   4.9305   5.2285   5.2349   5.2380   5.7119   5.7175
     6.9258   6.9278   6.9320   7.3646   7.3706   7.3741   7.5952   7.8506
     7.8549   7.8584   7.9835   7.9881   7.9906   8.1411   8.1443   8.1474
     8.1621   8.1639   8.1670   8.3925   8.3945   8.3981   8.3992   8.4029
     8.4043   8.4420

          k = 0.2500-0.2500-0.2500 ( 52563 PWs)   bands (ev):

    -5.6274  -5.1024  -5.0996  -5.0964  -4.6030  -4.6004  -4.5972  -4.1659
    -4.0699  -4.0674  -4.0637  -3.6594  -3.6566  -3.6510  -3.6506  -3.6482
    -3.6456  -3.4642  -3.4595  -3.4565  -2.9642  -2.9632  -2.9574  -2.5986
    -2.5943  -2.5912  -2.4345  -2.4304  -2.4259  -2.4254  -2.4220  -2.4197
    -0.8923  -0.8868  -0.8837  -0.8834  -0.8788  -0.8775  -0.7889  -0.7861
    -0.7818  -0.6689  -0.6677  -0.6619  -0.5944  -0.5838  -0.5809   0.1164
     0.2004   0.2032   0.2047   0.2055   0.2098   0.2129   1.0697   1.0786
     1.0816   1.4088   1.4120   1.4152   2.0177   2.0204   2.0218   2.0235
     2.0253   2.0265   2.0804   2.0826   2.0854   2.6297   2.6308   2.6333
     2.7323   2.7339   2.7378   2.7386   2.7412   2.7422   2.7887   2.7929
     2.7959   3.0961   3.0981   3.1004   3.1012   3.1016   3.1052   3.3639
     3.3664   3.3671   3.3783   3.3804   3.3835   3.7220   3.7259   3.7288
     3.7435   3.7469   3.7500   3.8315   3.8338   3.8357   4.0956   4.1013
     4.1052   4.1074   4.1078   4.1088   4.1456   4.1481   4.1506   4.4025
     4.4641   4.4669   4.4679   4.7068   4.7093   4.7118   4.7605   4.7698
     4.7716   4.9280   4.9330   5.2359   5.2392   5.2430   5.7167   5.7224
     6.9286   6.9327   6.9345   7.3673   7.3709   7.3757   7.5982   7.8542
     7.8578   7.8618   7.9816   7.9838   7.9884   8.1425   8.1439   8.1491
     8.1629   8.1665   8.1681   8.3891   8.3910   8.3949   8.3972   8.3981
     8.3993   8.4465

     the Fermi energy is     6.3208 ev

!    total energy              =    -730.88002778 Ry
     Harris-Foulkes estimate   =    -730.88002778 Ry
     estimated scf accuracy    <          4.9E-09 Ry

     The total energy is the sum of the following terms:

     one-electron contribution =     160.47259227 Ry
     hartree contribution      =      35.78748789 Ry
     xc contribution           =    -393.13399564 Ry
     ewald contribution        =    -534.00611230 Ry
     smearing contrib. (-TS)   =      -0.00000000 Ry

     convergence has been achieved in  12 iterations

     Forces acting on atoms (cartesian axes, Ry/au):

     atom    1 type  1   force =    -0.01601860   -0.00005746    0.00004963
     atom    2 type  1   force =     0.00253517    0.00383893    0.00250896
     atom    3 type  1   force =     0.00008113    0.00002962    0.00003001
     atom    4 type  1   force =     0.00003176   -0.00000992    0.00003688
     atom    5 type  1   force =     0.00008371    0.00025490    0.00002809
     atom    6 type  1   force =     0.00004368   -0.00005670    0.00003770
     atom    7 type  1   force =    -0.00044489   -0.00001963    0.00002989
     atom    8 type  1   force =     0.00005440    0.00002873    0.00002663
     atom    9 type  1   force =    -0.00056061    0.00009601    0.00014586
     atom   10 type  1   force =    -0.00002558    0.00003637    0.00003565
     atom   11 type  1   force =    -0.00055419    0.00036757   -0.00008149
     atom   12 type  1   force =    -0.00004723   -0.00005052    0.00002899
     atom   13 type  1   force =    -0.00055161   -0.00008368    0.00013667
     atom   14 type  1   force =    -0.00003446   -0.00001966    0.00004534
     atom   15 type  1   force =    -0.00056778   -0.00017333   -0.00006487
     atom   16 type  1   force =    -0.00273418    0.00395015    0.00272576
     atom   17 type  1   force =     0.00018025   -0.00016778    0.00018890
     atom   18 type  1   force =     0.00021022    0.00013947   -0.00025856
     atom   19 type  1   force =     0.00001382    0.00001991   -0.00010145
     atom   20 type  1   force =     0.00001398   -0.00002877    0.00004581
     atom   21 type  1   force =    -0.00227929    0.00394987   -0.00273522
     atom   22 type  1   force =     0.00020051    0.00005822    0.00017933
     atom   23 type  1   force =     0.00000741   -0.00000086    0.00003768
     atom   24 type  1   force =     0.00001726    0.00003827   -0.00010529
     atom   25 type  1   force =     0.00026779    0.00021369   -0.00014780
     atom   26 type  1   force =     0.00026291   -0.00020259   -0.00014255
     atom   27 type  1   force =     0.00296619    0.00373465   -0.00262617
     atom   28 type  1   force =     0.00027589    0.00017130    0.00006555
     atom   29 type  1   force =     0.00007120   -0.00004878   -0.00003420
     atom   30 type  1   force =     0.00007453    0.00005649   -0.00003918
     atom   31 type  1   force =     0.00009319    0.00001715   -0.00002870
     atom   32 type  1   force =     0.00007216    0.00018160   -0.00001848
     atom   33 type  1   force =    -0.00001988    0.00002493    0.00003229
     atom   34 type  1   force =     0.00025912    0.00005519    0.00002838
     atom   35 type  1   force =     0.00002586    0.00008162    0.00002547
     atom   36 type  1   force =    -0.00005820   -0.00042818    0.00003724
     atom   37 type  1   force =     0.00002733    0.00004906    0.00002528
     atom   38 type  1   force =    -0.00005953    0.00003148    0.00004870
     atom   39 type  1   force =    -0.00001000   -0.01601812    0.00003796
     atom   40 type  1   force =     0.00395884    0.00279146    0.00273700
     atom   41 type  1   force =     0.00010008    0.00019326    0.00018740
     atom   42 type  1   force =     0.00396738   -0.00269361   -0.00281342
     atom   43 type  1   force =     0.00014147    0.00021315   -0.00025531
     atom   44 type  1   force =    -0.00004843    0.00000639    0.00002675
     atom   45 type  1   force =    -0.00008290    0.00020396   -0.00024946
     atom   46 type  1   force =    -0.00006828   -0.00000445    0.00003964
     atom   47 type  1   force =    -0.00013430    0.00020609    0.00019777
     atom   48 type  1   force =     0.00024875    0.00001588   -0.00010420
     atom   49 type  1   force =    -0.00006753   -0.00003418    0.00006083
     atom   50 type  1   force =     0.00001934   -0.00002307    0.00001975
     atom   51 type  1   force =     0.00372426   -0.00304197    0.00262374
     atom   52 type  1   force =    -0.00011869   -0.00056281   -0.00007385
     atom   53 type  1   force =     0.00026512   -0.00002466    0.00003620
     atom   54 type  1   force =    -0.00001083   -0.00002917    0.00002123
     atom   55 type  1   force =     0.00005324   -0.00057659    0.00014662
     atom   56 type  1   force =     0.00014238   -0.00056018   -0.00008733
     atom   57 type  1   force =     0.00001976    0.00009464   -0.00004517
     atom   58 type  1   force =    -0.00004850    0.00007435   -0.00001619
     atom   59 type  1   force =     0.00017900    0.00007117   -0.00003696
     atom   60 type  1   force =     0.00005588    0.00007415   -0.00002037
     atom   61 type  1   force =     0.00361444    0.00274073   -0.00262160
     atom   62 type  1   force =     0.00021486    0.00026717    0.00007245
     atom   63 type  1   force =     0.00017156    0.00027533   -0.00016473
     atom   64 type  1   force =    -0.00020037    0.00026379    0.00008450

     Total force =     0.027446     Total SCF correction =     0.000132

     Writing output data file pwscf.save/
 
     init_run     :     40.28s CPU     88.78s WALL (       1 calls)
     electrons    :   1126.08s CPU   1804.47s WALL (       1 calls)
     forces       :     21.12s CPU     45.27s WALL (       1 calls)

     Called by init_run:
     wfcinit      :     38.81s CPU     85.05s WALL (       1 calls)
     potinit      :      0.23s CPU      0.57s WALL (       1 calls)
     hinit0       :      0.37s CPU      0.81s WALL (       1 calls)

     Called by electrons:
     c_bands      :    958.43s CPU   1531.66s WALL (      13 calls)
     sum_band     :    152.16s CPU    244.57s WALL (      13 calls)
     v_of_rho     :      3.68s CPU      5.66s WALL (      13 calls)
     newd         :     11.53s CPU     23.01s WALL (      13 calls)
     mix_rho      :      1.10s CPU      1.85s WALL (      13 calls)

     Called by c_bands:
     init_us_2    :     11.83s CPU     18.87s WALL (     112 calls)
     cegterg      :    865.76s CPU   1388.52s WALL (      52 calls)

     Called by sum_band:
     sum_band:bec :      0.06s CPU      0.07s WALL (      52 calls)
     addusdens    :     11.65s CPU     23.73s WALL (      13 calls)

     Called by *egterg:
     h_psi        :    629.76s CPU   1027.77s WALL (     214 calls)
     s_psi        :    126.07s CPU    199.84s WALL (     214 calls)
     g_psi        :      1.10s CPU      1.61s WALL (     158 calls)
     cdiaghg      :     10.50s CPU     16.67s WALL (     206 calls)

     Called by h_psi:
     h_psi:pot    :    627.76s CPU   1021.07s WALL (     214 calls)
     h_psi:calbec :    130.40s CPU    210.96s WALL (     214 calls)
     vloc_psi     :    371.24s CPU    610.84s WALL (     214 calls)
     add_vuspsi   :    126.12s CPU    199.26s WALL (     214 calls)

     General routines
     calbec       :    193.39s CPU    317.71s WALL (     282 calls)
     fft          :      3.60s CPU      5.57s WALL (     156 calls)
     ffts         :      0.19s CPU      0.27s WALL (      13 calls)
     fftw         :    379.98s CPU    643.02s WALL (   50774 calls)
 
     Parallel routines
     fft_scatt_xy :     68.95s CPU     89.36s WALL (   50943 calls)
     fft_scatt_yz :    127.68s CPU    306.16s WALL (   50943 calls)
 
     PWSCF        : 19m48.39s CPU    32m21.12s WALL

 
   This run was terminated on:  18: 2:29  14Feb2020            

=------------------------------------------------------------------------------=
   JOB DONE.
=------------------------------------------------------------------------------=
