
     Program PWSCF v.6.3MaX starts on 14Feb2020 at 11:53:26 

     This program is part of the open-source Quantum ESPRESSO suite
     for quantum simulation of materials; please cite
         "P. Giannozzi et al., J. Phys.:Condens. Matter 21 395502 (2009);
         "P. Giannozzi et al., J. Phys.:Condens. Matter 29 465901 (2017);
          URL http://www.quantum-espresso.org", 
     in publications or presentations arising from this work. More details at
     http://www.quantum-espresso.org/quote

     Parallel version (MPI), running on     2 processors

     MPI processes distributed on     1 nodes
     R & G space division:  proc/nbgrp/npool/nimage =       2
     Waiting for input...
     Reading input from standard input

     Current dimensions of program PWSCF are:
     Max number of different atomic species (ntypx) = 10
     Max number of k-points (npk) =  40000
     Max angular momentum in pseudopotentials (lmaxx) =  3

     Subspace diagonalization in iterative solution of the eigenvalue problem:
     a serial algorithm will be used

 
     Parallelization info
     --------------------
     sticks:   dense  smooth     PW     G-vecs:    dense   smooth      PW
     Min        3392    3392    878               210674   210674   27756
     Max        3393    3393    879               210675   210675   27759
     Sum        6785    6785   1757               421349   421349   55515
 


     bravais-lattice index     =            0
     lattice parameter (alat)  =      20.6591  a.u.
     unit-cell volume          =    8817.2783 (a.u.)^3
     number of atoms/cell      =           64
     number of atomic types    =            1
     number of electrons       =       256.00
     number of Kohn-Sham states=          154
     kinetic-energy cutoff     =      50.0000  Ry
     charge density cutoff     =     200.0000  Ry
     convergence threshold     =      1.0E-08
     mixing beta               =       0.7000
     number of iterations used =            8  plain     mixing
     Exchange-correlation      = PBE ( 1  4  3  4 0 0)

     celldm(1)=  20.659106  celldm(2)=   0.000000  celldm(3)=   0.000000
     celldm(4)=   0.000000  celldm(5)=   0.000000  celldm(6)=   0.000000

     crystal axes: (cart. coord. in units of alat)
               a(1) = (   1.000000   0.000000   0.000000 )  
               a(2) = (   0.000000   1.000000   0.000000 )  
               a(3) = (   0.000000   0.000000   1.000000 )  

     reciprocal axes: (cart. coord. in units 2 pi/alat)
               b(1) = (  1.000000  0.000000  0.000000 )  
               b(2) = (  0.000000  1.000000  0.000000 )  
               b(3) = (  0.000000  0.000000  1.000000 )  


     PseudoPot. # 1 for Si read from file:
     ~/kedar/softwares/SSSP_precision_pseudos/Si.pbe-n-rrkjus_psl.1.0.0.UPF
     MD5 check sum: Not computed, couldn't open file
     Pseudo is Ultrasoft + core correction, Zval =  4.0
     Generated using "atomic" code by A. Dal Corso v.5.1
     Using radial grid of 1141 points,  6 beta functions with: 
                l(1) =   0
                l(2) =   0
                l(3) =   1
                l(4) =   1
                l(5) =   2
                l(6) =   2
     Q(r) pseudized with 0 coefficients 


     atomic species   valence    mass     pseudopotential
        Si             4.00    28.08550     Si( 1.00)

     No symmetry found



   Cartesian axes

     site n.     atom                  positions (alat units)
         1           Si  tau(   1) = (   0.4404043   0.4375000   0.4375000  )
         2           Si  tau(   2) = (   0.9375000   0.4375000   0.4375000  )
         3           Si  tau(   3) = (   0.4375000   0.9375000   0.4375000  )
         4           Si  tau(   4) = (   0.9375000   0.9375000   0.4375000  )
         5           Si  tau(   5) = (   0.4375000   0.4375000   0.9375000  )
         6           Si  tau(   6) = (   0.9375000   0.4375000   0.9375000  )
         7           Si  tau(   7) = (   0.4375000   0.9375000   0.9375000  )
         8           Si  tau(   8) = (   0.9375000   0.9375000   0.9375000  )
         9           Si  tau(   9) = (   0.4375000   0.1875000   0.1875000  )
        10           Si  tau(  10) = (   0.9375000   0.1875000   0.1875000  )
        11           Si  tau(  11) = (   0.4375000   0.6875000   0.1875000  )
        12           Si  tau(  12) = (   0.9375000   0.6875000   0.1875000  )
        13           Si  tau(  13) = (   0.4375000   0.1875000   0.6875000  )
        14           Si  tau(  14) = (   0.9375000   0.1875000   0.6875000  )
        15           Si  tau(  15) = (   0.4375000   0.6875000   0.6875000  )
        16           Si  tau(  16) = (   0.9375000   0.6875000   0.6875000  )
        17           Si  tau(  17) = (   0.1875000   0.4375000   0.1875000  )
        18           Si  tau(  18) = (   0.6875000   0.4375000   0.1875000  )
        19           Si  tau(  19) = (   0.1904043   0.9375000   0.1875000  )
        20           Si  tau(  20) = (   0.6875000   0.9375000   0.1875000  )
        21           Si  tau(  21) = (   0.1875000   0.4375000   0.6875000  )
        22           Si  tau(  22) = (   0.6875000   0.4375000   0.6875000  )
        23           Si  tau(  23) = (   0.1875000   0.9375000   0.6875000  )
        24           Si  tau(  24) = (   0.6875000   0.9375000   0.6875000  )
        25           Si  tau(  25) = (   0.1875000   0.1875000   0.4375000  )
        26           Si  tau(  26) = (   0.6875000   0.1875000   0.4375000  )
        27           Si  tau(  27) = (   0.1875000   0.6875000   0.4375000  )
        28           Si  tau(  28) = (   0.6875000   0.6875000   0.4375000  )
        29           Si  tau(  29) = (   0.1875000   0.1875000   0.9375000  )
        30           Si  tau(  30) = (   0.6875000   0.1875000   0.9375000  )
        31           Si  tau(  31) = (   0.1875000   0.6875000   0.9375000  )
        32           Si  tau(  32) = (   0.6875000   0.6875000   0.9375000  )
        33           Si  tau(  33) = (   0.0625000   0.0625000   0.0625000  )
        34           Si  tau(  34) = (   0.5625000   0.0625000   0.0625000  )
        35           Si  tau(  35) = (   0.0625000   0.5625000   0.0625000  )
        36           Si  tau(  36) = (   0.5625000   0.5625000   0.0625000  )
        37           Si  tau(  37) = (   0.0625000   0.0625000   0.5625000  )
        38           Si  tau(  38) = (   0.5625000   0.0625000   0.5625000  )
        39           Si  tau(  39) = (   0.0625000   0.5625000   0.5625000  )
        40           Si  tau(  40) = (   0.5625000   0.5625000   0.5625000  )
        41           Si  tau(  41) = (   0.0625000   0.3125000   0.3125000  )
        42           Si  tau(  42) = (   0.5625000   0.3125000   0.3125000  )
        43           Si  tau(  43) = (   0.0625000   0.8125000   0.3125000  )
        44           Si  tau(  44) = (   0.5625000   0.8125000   0.3125000  )
        45           Si  tau(  45) = (   0.0625000   0.3125000   0.8125000  )
        46           Si  tau(  46) = (   0.5625000   0.3125000   0.8125000  )
        47           Si  tau(  47) = (   0.0625000   0.8125000   0.8125000  )
        48           Si  tau(  48) = (   0.5625000   0.8125000   0.8125000  )
        49           Si  tau(  49) = (   0.3125000   0.0625000   0.3125000  )
        50           Si  tau(  50) = (   0.8125000   0.0625000   0.3125000  )
        51           Si  tau(  51) = (   0.3125000   0.5625000   0.3125000  )
        52           Si  tau(  52) = (   0.8125000   0.5625000   0.3125000  )
        53           Si  tau(  53) = (   0.3125000   0.0625000   0.8125000  )
        54           Si  tau(  54) = (   0.8125000   0.0625000   0.8125000  )
        55           Si  tau(  55) = (   0.3125000   0.5625000   0.8125000  )
        56           Si  tau(  56) = (   0.8125000   0.5625000   0.8125000  )
        57           Si  tau(  57) = (   0.3125000   0.3125000   0.0625000  )
        58           Si  tau(  58) = (   0.8125000   0.3125000   0.0625000  )
        59           Si  tau(  59) = (   0.3125000   0.8125000   0.0625000  )
        60           Si  tau(  60) = (   0.8125000   0.8125000   0.0625000  )
        61           Si  tau(  61) = (   0.3125000   0.3125000   0.5625000  )
        62           Si  tau(  62) = (   0.8125000   0.3125000   0.5625000  )
        63           Si  tau(  63) = (   0.3125000   0.8125000   0.5625000  )
        64           Si  tau(  64) = (   0.8125000   0.8125000   0.5625000  )

     number of k points=     4  gaussian smearing, width (Ry)=  0.0100
                       cart. coord. in units 2pi/alat
        k(    1) = (   0.2500000   0.2500000   0.2500000), wk =   0.5000000
        k(    2) = (  -0.2500000  -0.2500000   0.2500000), wk =   0.5000000
        k(    3) = (  -0.2500000   0.2500000  -0.2500000), wk =   0.5000000
        k(    4) = (   0.2500000  -0.2500000  -0.2500000), wk =   0.5000000

     Dense  grid:   421349 G-vectors     FFT dimensions: (  96,  96,  96)

     Estimated max dynamical RAM per process >       2.05 GB

     Estimated total dynamical RAM >       4.11 GB

     Check: negative/imaginary core charge=   -0.000001    0.000000

     Initial potential from superposition of free atoms

     starting charge  255.96421, renormalised to  256.00000
     Starting wfcs are  256 randomized atomic wfcs

     total cpu time spent up to now is       43.1 secs

     Self-consistent Calculation

     iteration #  1     ecut=    50.00 Ry     beta= 0.70
     Davidson diagonalization with overlap
     ethr =  1.00E-02,  avg # of iterations =  3.0

     Threshold (ethr) on eigenvalues was too large:
     Diagonalizing with lowered threshold

     Davidson diagonalization with overlap
     ethr =  6.78E-04,  avg # of iterations =  2.0

     total cpu time spent up to now is      214.4 secs

     total energy              =    -730.80298211 Ry
     Harris-Foulkes estimate   =    -731.20917707 Ry
     estimated scf accuracy    <       1.72072215 Ry

     iteration #  2     ecut=    50.00 Ry     beta= 0.70
     Davidson diagonalization with overlap
     ethr =  6.72E-04,  avg # of iterations =  1.0

     total cpu time spent up to now is      284.4 secs

     total energy              =    -730.86497420 Ry
     Harris-Foulkes estimate   =    -730.87093921 Ry
     estimated scf accuracy    <       0.08012063 Ry

     iteration #  3     ecut=    50.00 Ry     beta= 0.70
     Davidson diagonalization with overlap
     ethr =  3.13E-05,  avg # of iterations = 10.2

     total cpu time spent up to now is      407.7 secs

     total energy              =    -730.87933229 Ry
     Harris-Foulkes estimate   =    -730.88059192 Ry
     estimated scf accuracy    <       0.00275471 Ry

     iteration #  4     ecut=    50.00 Ry     beta= 0.70
     Davidson diagonalization with overlap
     ethr =  1.08E-06,  avg # of iterations =  4.5

     total cpu time spent up to now is      515.2 secs

     total energy              =    -730.87962593 Ry
     Harris-Foulkes estimate   =    -730.88063135 Ry
     estimated scf accuracy    <       0.00288075 Ry

     iteration #  5     ecut=    50.00 Ry     beta= 0.70
     Davidson diagonalization with overlap
     ethr =  1.08E-06,  avg # of iterations =  2.0

     total cpu time spent up to now is      594.1 secs

     total energy              =    -730.87999237 Ry
     Harris-Foulkes estimate   =    -730.88009802 Ry
     estimated scf accuracy    <       0.00030785 Ry

     iteration #  6     ecut=    50.00 Ry     beta= 0.70
     Davidson diagonalization with overlap
     ethr =  1.20E-07,  avg # of iterations =  3.0

     total cpu time spent up to now is      677.2 secs

     total energy              =    -730.88001622 Ry
     Harris-Foulkes estimate   =    -730.88004657 Ry
     estimated scf accuracy    <       0.00007611 Ry

     iteration #  7     ecut=    50.00 Ry     beta= 0.70
     Davidson diagonalization with overlap
     ethr =  2.97E-08,  avg # of iterations =  2.0

     total cpu time spent up to now is      780.4 secs

     total energy              =    -730.88002746 Ry
     Harris-Foulkes estimate   =    -730.88002791 Ry
     estimated scf accuracy    <       0.00000277 Ry

     iteration #  8     ecut=    50.00 Ry     beta= 0.70
     Davidson diagonalization with overlap
     ethr =  1.08E-09,  avg # of iterations =  3.0

     total cpu time spent up to now is      938.1 secs

     total energy              =    -730.88002821 Ry
     Harris-Foulkes estimate   =    -730.88002862 Ry
     estimated scf accuracy    <       0.00000197 Ry

     iteration #  9     ecut=    50.00 Ry     beta= 0.70
     Davidson diagonalization with overlap
     ethr =  7.70E-10,  avg # of iterations =  2.0

     total cpu time spent up to now is     1059.8 secs

     total energy              =    -730.88002811 Ry
     Harris-Foulkes estimate   =    -730.88002838 Ry
     estimated scf accuracy    <       0.00000097 Ry

     iteration # 10     ecut=    50.00 Ry     beta= 0.70
     Davidson diagonalization with overlap
     ethr =  3.78E-10,  avg # of iterations =  1.0

     total cpu time spent up to now is     1169.7 secs

     total energy              =    -730.88002809 Ry
     Harris-Foulkes estimate   =    -730.88002817 Ry
     estimated scf accuracy    <       0.00000020 Ry

     iteration # 11     ecut=    50.00 Ry     beta= 0.70
     Davidson diagonalization with overlap
     ethr =  7.97E-11,  avg # of iterations =  3.0

     total cpu time spent up to now is     1303.0 secs

     total energy              =    -730.88002811 Ry
     Harris-Foulkes estimate   =    -730.88002812 Ry
     estimated scf accuracy    <       0.00000001 Ry

     iteration # 12     ecut=    50.00 Ry     beta= 0.70
     Davidson diagonalization with overlap
     ethr =  5.80E-12,  avg # of iterations =  3.0

     total cpu time spent up to now is     1442.8 secs

     End of self-consistent calculation

          k = 0.2500 0.2500 0.2500 ( 52563 PWs)   bands (ev):

    -5.6274  -5.1041  -5.0983  -5.0960  -4.6047  -4.5991  -4.5968  -4.1660
    -4.0717  -4.0660  -4.0632  -3.6611  -3.6555  -3.6510  -3.6502  -3.6476
    -3.6461  -3.4620  -3.4612  -3.4569  -2.9664  -2.9616  -2.9568  -2.5981
    -2.5954  -2.5907  -2.4355  -2.4291  -2.4258  -2.4246  -2.4218  -2.4209
    -0.8951  -0.8860  -0.8835  -0.8822  -0.8787  -0.8770  -0.7903  -0.7846
    -0.7817  -0.6729  -0.6631  -0.6627  -0.5946  -0.5832  -0.5812   0.1164
     0.1953   0.2032   0.2049   0.2066   0.2121   0.2145   1.0700   1.0792
     1.0806   1.4063   1.4144   1.4154   2.0179   2.0190   2.0220   2.0233
     2.0254   2.0279   2.0790   2.0838   2.0853   2.6284   2.6321   2.6334
     2.7325   2.7340   2.7357   2.7377   2.7424   2.7445   2.7871   2.7939
     2.7959   3.0924   3.0991   3.1002   3.1011   3.1042   3.1057   3.3644
     3.3651   3.3679   3.3747   3.3832   3.3840   3.7209   3.7275   3.7283
     3.7447   3.7462   3.7495   3.8307   3.8326   3.8377   4.0980   4.1005
     4.1039   4.1069   4.1080   4.1090   4.1447   4.1467   4.1524   4.4026
     4.4640   4.4651   4.4698   4.7056   4.7077   4.7145   4.7613   4.7699
     4.7711   4.9255   4.9353   5.2352   5.2370   5.2459   5.7138   5.7253
     6.9304   6.9305   6.9350   7.3667   7.3704   7.3770   7.5982   7.8534
     7.8573   7.8630   7.9807   7.9861   7.9870   8.1425   8.1437   8.1491
     8.1637   8.1642   8.1701   8.3864   8.3931   8.3953   8.3966   8.3979
     8.4004   8.4467

          k =-0.2500-0.2500 0.2500 ( 52563 PWs)   bands (ev):

    -5.6275  -5.1018  -5.0992  -5.0967  -4.6029  -4.6002  -4.5977  -4.1682
    -4.0702  -4.0678  -4.0652  -3.6562  -3.6549  -3.6529  -3.6512  -3.6480
    -3.6422  -3.4621  -3.4572  -3.4566  -2.9685  -2.9649  -2.9627  -2.5977
    -2.5937  -2.5907  -2.4309  -2.4303  -2.4275  -2.4259  -2.4233  -2.4163
    -0.8916  -0.8895  -0.8868  -0.8839  -0.8828  -0.8739  -0.7913  -0.7882
    -0.7822  -0.6732  -0.6728  -0.6632  -0.5837  -0.5772  -0.5722   0.1238
     0.1954   0.1984   0.2009   0.2041   0.2058   0.2138   1.0771   1.0801
     1.0874   1.4083   1.4102   1.4171   2.0170   2.0201   2.0218   2.0224
     2.0256   2.0265   2.0786   2.0795   2.0839   2.6331   2.6345   2.6380
     2.7285   2.7300   2.7352   2.7368   2.7385   2.7402   2.7848   2.7878
     2.7921   3.0960   3.0977   3.0997   3.1008   3.1021   3.1085   3.3599
     3.3649   3.3652   3.3757   3.3762   3.3829   3.7269   3.7290   3.7325
     3.7505   3.7532   3.7562   3.8279   3.8312   3.8346   4.1052   4.1064
     4.1075   4.1099   4.1135   4.1170   4.1414   4.1452   4.1495   4.4108
     4.4577   4.4631   4.4641   4.7014   4.7057   4.7084   4.7723   4.7765
     4.7824   4.9230   4.9332   5.2288   5.2342   5.2384   5.7091   5.7204
     6.9256   6.9300   6.9301   7.3659   7.3687   7.3747   7.5952   7.8506
     7.8539   7.8594   7.9849   7.9859   7.9913   8.1417   8.1438   8.1477
     8.1610   8.1655   8.1661   8.3918   8.3950   8.3972   8.3993   8.4013
     8.4067   8.4421

          k =-0.2500 0.2500-0.2500 ( 52563 PWs)   bands (ev):

    -5.6275  -5.1027  -5.1002  -5.0947  -4.6039  -4.6011  -4.5959  -4.1681
    -4.0713  -4.0686  -4.0632  -3.6568  -3.6553  -3.6524  -3.6516  -3.6474
    -3.6421  -3.4621  -3.4572  -3.4566  -2.9704  -2.9652  -2.9605  -2.5976
    -2.5937  -2.5906  -2.4311  -2.4302  -2.4275  -2.4263  -2.4228  -2.4162
    -0.8916  -0.8901  -0.8859  -0.8844  -0.8825  -0.8737  -0.7913  -0.7881
    -0.7825  -0.6733  -0.6728  -0.6632  -0.5831  -0.5810  -0.5689   0.1238
     0.1949   0.1972   0.2025   0.2041   0.2059   0.2138   1.0774   1.0791
     1.0880   1.4084   1.4098   1.4176   2.0171   2.0196   2.0218   2.0231
     2.0260   2.0266   2.0774   2.0789   2.0849   2.6331   2.6345   2.6381
     2.7288   2.7305   2.7351   2.7374   2.7390   2.7401   2.7839   2.7863
     2.7931   3.0958   3.0971   3.1002   3.1010   3.1022   3.1085   3.3599
     3.3648   3.3653   3.3752   3.3763   3.3832   3.7272   3.7279   3.7332
     3.7504   3.7531   3.7562   3.8272   3.8322   3.8347   4.1052   4.1063
     4.1074   4.1102   4.1135   4.1166   4.1403   4.1462   4.1494   4.4108
     4.4578   4.4634   4.4638   4.7007   4.7069   4.7082   4.7727   4.7741
     4.7845   4.9228   4.9331   5.2273   5.2359   5.2382   5.7091   5.7204
     6.9256   6.9300   6.9301   7.3640   7.3708   7.3745   7.5952   7.8493
     7.8552   7.8592   7.9850   7.9860   7.9913   8.1394   8.1461   8.1470
     8.1614   8.1654   8.1665   8.3924   8.3959   8.3972   8.3984   8.4008
     8.4067   8.4421

          k = 0.2500-0.2500-0.2500 ( 52563 PWs)   bands (ev):

    -5.6274  -5.1021  -5.0995  -5.0968  -4.6029  -4.6002  -4.5975  -4.1660
    -4.0697  -4.0669  -4.0644  -3.6609  -3.6550  -3.6514  -3.6498  -3.6477
    -3.6465  -3.4620  -3.4612  -3.4569  -2.9643  -2.9621  -2.9585  -2.5981
    -2.5954  -2.5907  -2.4354  -2.4287  -2.4262  -2.4246  -2.4218  -2.4210
    -0.8953  -0.8857  -0.8840  -0.8816  -0.8789  -0.8771  -0.7901  -0.7847
    -0.7817  -0.6729  -0.6631  -0.6626  -0.5914  -0.5869  -0.5807   0.1163
     0.1953   0.2033   0.2049   0.2082   0.2109   0.2141   1.0708   1.0781
     1.0810   1.4067   1.4138   1.4154   2.0180   2.0194   2.0224   2.0233
     2.0246   2.0272   2.0799   2.0842   2.0847   2.6284   2.6322   2.6333
     2.7327   2.7344   2.7363   2.7379   2.7408   2.7430   2.7880   2.7933
     2.7970   3.0924   3.0992   3.1004   3.1016   3.1036   3.1055   3.3645
     3.3650   3.3680   3.3752   3.3827   3.3842   3.7216   3.7266   3.7286
     3.7447   3.7462   3.7495   3.8305   3.8336   3.8367   4.0978   4.1004
     4.1043   4.1069   4.1079   4.1092   4.1446   4.1479   4.1515   4.4026
     4.4642   4.4649   4.4698   4.7055   4.7091   4.7129   4.7629   4.7678
     4.7715   4.9255   4.9355   5.2349   5.2389   5.2444   5.7138   5.7253
     6.9304   6.9305   6.9350   7.3665   7.3724   7.3751   7.5982   7.8533
     7.8585   7.8621   7.9807   7.9860   7.9869   8.1426   8.1454   8.1481
     8.1633   8.1644   8.1694   8.3866   8.3924   8.3946   8.3966   8.3987
     8.4007   8.4468

     the Fermi energy is     6.3205 ev

!    total energy              =    -730.88002811 Ry
     Harris-Foulkes estimate   =    -730.88002812 Ry
     estimated scf accuracy    <          3.2E-09 Ry

     The total energy is the sum of the following terms:

     one-electron contribution =     160.47284632 Ry
     hartree contribution      =      35.78735437 Ry
     xc contribution           =    -393.13398894 Ry
     ewald contribution        =    -534.00623987 Ry
     smearing contrib. (-TS)   =      -0.00000000 Ry

     convergence has been achieved in  12 iterations

     Forces acting on atoms (cartesian axes, Ry/au):

     atom    1 type  1   force =    -0.01601021    0.00000915   -0.00007491
     atom    2 type  1   force =     0.00006664    0.00000929    0.00007554
     atom    3 type  1   force =     0.00029244    0.00011366    0.00022981
     atom    4 type  1   force =     0.00022530    0.00011050   -0.00022433
     atom    5 type  1   force =     0.00010073   -0.00000968    0.00007574
     atom    6 type  1   force =     0.00003667   -0.00000980   -0.00007612
     atom    7 type  1   force =    -0.00023885   -0.00011341   -0.00022940
     atom    8 type  1   force =     0.00025653   -0.00010919    0.00022512
     atom    9 type  1   force =    -0.00029310    0.00034315    0.00022825
     atom   10 type  1   force =     0.00023183   -0.00021508    0.00011943
     atom   11 type  1   force =    -0.00028833   -0.00011879   -0.00022379
     atom   12 type  1   force =     0.00023404    0.00023299   -0.00011938
     atom   13 type  1   force =    -0.00048086   -0.00018661    0.00011978
     atom   14 type  1   force =     0.00004625    0.00006754    0.00001950
     atom   15 type  1   force =    -0.00048642   -0.00003801   -0.00012396
     atom   16 type  1   force =     0.00004498   -0.00008607   -0.00001928
     atom   17 type  1   force =     0.00028519   -0.00011058    0.00022484
     atom   18 type  1   force =     0.00023179   -0.00011526   -0.00022922
     atom   19 type  1   force =    -0.01601049   -0.00000964   -0.00007729
     atom   20 type  1   force =     0.00006849   -0.00000807    0.00007441
     atom   21 type  1   force =    -0.00024476    0.00011090   -0.00022575
     atom   22 type  1   force =     0.00026351    0.00011470    0.00022895
     atom   23 type  1   force =     0.00009956    0.00000854    0.00007685
     atom   24 type  1   force =     0.00003672    0.00000967   -0.00007504
     atom   25 type  1   force =    -0.00030010    0.00010943   -0.00022522
     atom   26 type  1   force =     0.00023932   -0.00023705   -0.00012427
     atom   27 type  1   force =    -0.00029437   -0.00033451    0.00021964
     atom   28 type  1   force =     0.00023994    0.00021908    0.00012478
     atom   29 type  1   force =    -0.00048215    0.00003232   -0.00011819
     atom   30 type  1   force =     0.00004678    0.00008427   -0.00001833
     atom   31 type  1   force =    -0.00048605    0.00019268    0.00012369
     atom   32 type  1   force =     0.00004549   -0.00006704    0.00001823
     atom   33 type  1   force =     0.00381933   -0.00247927    0.00254177
     atom   34 type  1   force =     0.00024906   -0.00000837    0.00006467
     atom   35 type  1   force =    -0.00003110   -0.00000935    0.00007671
     atom   36 type  1   force =    -0.00002959    0.00002183    0.00006667
     atom   37 type  1   force =    -0.00002987   -0.00002581    0.00006241
     atom   38 type  1   force =    -0.00003033    0.00000865    0.00007699
     atom   39 type  1   force =     0.00024459    0.00000988    0.00006477
     atom   40 type  1   force =     0.00393913    0.00270550    0.00276586
     atom   41 type  1   force =    -0.00006796   -0.00000133   -0.00008837
     atom   42 type  1   force =     0.00398841   -0.00270908   -0.00276476
     atom   43 type  1   force =     0.00386677    0.00248565   -0.00253763
     atom   44 type  1   force =    -0.00006974   -0.00000124   -0.00008604
     atom   45 type  1   force =     0.00028047   -0.00000025   -0.00005264
     atom   46 type  1   force =    -0.00007862   -0.00001897   -0.00006828
     atom   47 type  1   force =    -0.00007553    0.00002013   -0.00006685
     atom   48 type  1   force =     0.00028658    0.00000133   -0.00005535
     atom   49 type  1   force =     0.00390075    0.00269998    0.00278545
     atom   50 type  1   force =     0.00001919    0.00001198    0.00006484
     atom   51 type  1   force =     0.00378025   -0.00247165    0.00256071
     atom   52 type  1   force =     0.00001735   -0.00001309    0.00006444
     atom   53 type  1   force =     0.00019727    0.00002028    0.00006634
     atom   54 type  1   force =     0.00000644   -0.00000319    0.00005684
     atom   55 type  1   force =     0.00020188   -0.00002124    0.00006380
     atom   56 type  1   force =     0.00000822    0.00000121    0.00005728
     atom   57 type  1   force =    -0.00011532    0.00001136   -0.00008497
     atom   58 type  1   force =     0.00005570    0.00000347   -0.00005268
     atom   59 type  1   force =     0.00421251   -0.00270748   -0.00276426
     atom   60 type  1   force =    -0.00002992   -0.00000543   -0.00006785
     atom   61 type  1   force =     0.00409825    0.00248275   -0.00253904
     atom   62 type  1   force =    -0.00003066    0.00000674   -0.00006853
     atom   63 type  1   force =    -0.00011550   -0.00001276   -0.00008806
     atom   64 type  1   force =     0.00005550   -0.00000131   -0.00005433

     Total force =     0.027426     Total SCF correction =     0.000099

     Writing output data file pwscf.save/
 
     init_run     :     40.52s CPU     42.71s WALL (       1 calls)
     electrons    :   1107.47s CPU   1399.75s WALL (       1 calls)
     forces       :     20.61s CPU     31.51s WALL (       1 calls)

     Called by init_run:
     wfcinit      :     39.25s CPU     41.06s WALL (       1 calls)
     potinit      :      0.25s CPU      0.30s WALL (       1 calls)
     hinit0       :      0.34s CPU      0.37s WALL (       1 calls)

     Called by electrons:
     c_bands      :    941.71s CPU   1178.82s WALL (      13 calls)
     sum_band     :    149.70s CPU    196.24s WALL (      13 calls)
     v_of_rho     :      3.68s CPU      4.83s WALL (      13 calls)
     newd         :     11.93s CPU     19.20s WALL (      13 calls)
     mix_rho      :      1.15s CPU      1.62s WALL (      13 calls)

     Called by c_bands:
     init_us_2    :     12.67s CPU     15.62s WALL (     112 calls)
     cegterg      :    850.49s CPU   1068.89s WALL (      52 calls)

     Called by sum_band:
     sum_band:bec :      0.07s CPU      0.07s WALL (      52 calls)
     addusdens    :     12.20s CPU     18.87s WALL (      13 calls)

     Called by *egterg:
     h_psi        :    626.15s CPU    780.51s WALL (     215 calls)
     s_psi        :    124.63s CPU    151.54s WALL (     215 calls)
     g_psi        :      1.13s CPU      1.31s WALL (     159 calls)
     cdiaghg      :     10.63s CPU     12.82s WALL (     207 calls)

     Called by h_psi:
     h_psi:pot    :    624.01s CPU    775.48s WALL (     215 calls)
     h_psi:calbec :    128.62s CPU    158.60s WALL (     215 calls)
     vloc_psi     :    372.26s CPU    465.44s WALL (     215 calls)
     add_vuspsi   :    123.12s CPU    151.43s WALL (     215 calls)

     General routines
     calbec       :    190.34s CPU    239.25s WALL (     283 calls)
     fft          :      3.34s CPU      4.63s WALL (     156 calls)
     ffts         :      0.21s CPU      0.26s WALL (      13 calls)
     fftw         :    370.35s CPU    476.00s WALL (   50926 calls)
 
     Parallel routines
     fft_scatt_xy :     75.01s CPU     84.67s WALL (   51095 calls)
     fft_scatt_yz :    102.52s CPU    172.77s WALL (   51095 calls)
 
     PWSCF        : 19m29.14s CPU    24m35.22s WALL

 
   This run was terminated on:  12:18: 2  14Feb2020            

=------------------------------------------------------------------------------=
   JOB DONE.
=------------------------------------------------------------------------------=
