
     Program PWSCF v.6.3MaX starts on 14Feb2020 at 19:36:48 

     This program is part of the open-source Quantum ESPRESSO suite
     for quantum simulation of materials; please cite
         "P. Giannozzi et al., J. Phys.:Condens. Matter 21 395502 (2009);
         "P. Giannozzi et al., J. Phys.:Condens. Matter 29 465901 (2017);
          URL http://www.quantum-espresso.org", 
     in publications or presentations arising from this work. More details at
     http://www.quantum-espresso.org/quote

     Parallel version (MPI), running on     2 processors

     MPI processes distributed on     1 nodes
     R & G space division:  proc/nbgrp/npool/nimage =       2
     Waiting for input...
     Reading input from standard input

     Current dimensions of program PWSCF are:
     Max number of different atomic species (ntypx) = 10
     Max number of k-points (npk) =  40000
     Max angular momentum in pseudopotentials (lmaxx) =  3

     Subspace diagonalization in iterative solution of the eigenvalue problem:
     a serial algorithm will be used

 
     Parallelization info
     --------------------
     sticks:   dense  smooth     PW     G-vecs:    dense   smooth      PW
     Min        3392    3392    878               210674   210674   27756
     Max        3393    3393    879               210675   210675   27759
     Sum        6785    6785   1757               421349   421349   55515
 


     bravais-lattice index     =            0
     lattice parameter (alat)  =      20.6591  a.u.
     unit-cell volume          =    8817.2783 (a.u.)^3
     number of atoms/cell      =           64
     number of atomic types    =            1
     number of electrons       =       256.00
     number of Kohn-Sham states=          154
     kinetic-energy cutoff     =      50.0000  Ry
     charge density cutoff     =     200.0000  Ry
     convergence threshold     =      1.0E-08
     mixing beta               =       0.7000
     number of iterations used =            8  plain     mixing
     Exchange-correlation      = PBE ( 1  4  3  4 0 0)

     celldm(1)=  20.659106  celldm(2)=   0.000000  celldm(3)=   0.000000
     celldm(4)=   0.000000  celldm(5)=   0.000000  celldm(6)=   0.000000

     crystal axes: (cart. coord. in units of alat)
               a(1) = (   1.000000   0.000000   0.000000 )  
               a(2) = (   0.000000   1.000000   0.000000 )  
               a(3) = (   0.000000   0.000000   1.000000 )  

     reciprocal axes: (cart. coord. in units 2 pi/alat)
               b(1) = (  1.000000  0.000000  0.000000 )  
               b(2) = (  0.000000  1.000000  0.000000 )  
               b(3) = (  0.000000  0.000000  1.000000 )  


     PseudoPot. # 1 for Si read from file:
     ~/kedar/softwares/SSSP_precision_pseudos/Si.pbe-n-rrkjus_psl.1.0.0.UPF
     MD5 check sum: Not computed, couldn't open file
     Pseudo is Ultrasoft + core correction, Zval =  4.0
     Generated using "atomic" code by A. Dal Corso v.5.1
     Using radial grid of 1141 points,  6 beta functions with: 
                l(1) =   0
                l(2) =   0
                l(3) =   1
                l(4) =   1
                l(5) =   2
                l(6) =   2
     Q(r) pseudized with 0 coefficients 


     atomic species   valence    mass     pseudopotential
        Si             4.00    28.08550     Si( 1.00)

      2 Sym. Ops. (no inversion) found ( 1 have fractional translation)



   Cartesian axes

     site n.     atom                  positions (alat units)
         1           Si  tau(   1) = (   0.4404043   0.4375000   0.4375000  )
         2           Si  tau(   2) = (   0.9375000   0.4375000   0.4375000  )
         3           Si  tau(   3) = (   0.4375000   0.9375000   0.4375000  )
         4           Si  tau(   4) = (   0.9375000   0.9375000   0.4375000  )
         5           Si  tau(   5) = (   0.4375000   0.4375000   0.9375000  )
         6           Si  tau(   6) = (   0.9375000   0.4375000   0.9375000  )
         7           Si  tau(   7) = (   0.4375000   0.9375000   0.9375000  )
         8           Si  tau(   8) = (   0.9375000   0.9375000   0.9375000  )
         9           Si  tau(   9) = (   0.4375000   0.1875000   0.1875000  )
        10           Si  tau(  10) = (   0.9375000   0.1875000   0.1875000  )
        11           Si  tau(  11) = (   0.4375000   0.6875000   0.1875000  )
        12           Si  tau(  12) = (   0.9375000   0.6875000   0.1875000  )
        13           Si  tau(  13) = (   0.4375000   0.1875000   0.6875000  )
        14           Si  tau(  14) = (   0.9375000   0.1875000   0.6875000  )
        15           Si  tau(  15) = (   0.4375000   0.6875000   0.6875000  )
        16           Si  tau(  16) = (   0.9375000   0.6875000   0.6875000  )
        17           Si  tau(  17) = (   0.1875000   0.4375000   0.1875000  )
        18           Si  tau(  18) = (   0.6875000   0.4375000   0.1875000  )
        19           Si  tau(  19) = (   0.1875000   0.9375000   0.1875000  )
        20           Si  tau(  20) = (   0.6875000   0.9375000   0.1875000  )
        21           Si  tau(  21) = (   0.1875000   0.4375000   0.6875000  )
        22           Si  tau(  22) = (   0.6875000   0.4375000   0.6875000  )
        23           Si  tau(  23) = (   0.1875000   0.9375000   0.6875000  )
        24           Si  tau(  24) = (   0.6875000   0.9375000   0.6875000  )
        25           Si  tau(  25) = (   0.1875000   0.1875000   0.4375000  )
        26           Si  tau(  26) = (   0.6875000   0.1875000   0.4375000  )
        27           Si  tau(  27) = (   0.1875000   0.6875000   0.4375000  )
        28           Si  tau(  28) = (   0.6875000   0.6875000   0.4375000  )
        29           Si  tau(  29) = (   0.1875000   0.1875000   0.9375000  )
        30           Si  tau(  30) = (   0.6875000   0.1875000   0.9375000  )
        31           Si  tau(  31) = (   0.1875000   0.6875000   0.9375000  )
        32           Si  tau(  32) = (   0.6875000   0.6875000   0.9375000  )
        33           Si  tau(  33) = (   0.0625000   0.0625000   0.0625000  )
        34           Si  tau(  34) = (   0.5625000   0.0625000   0.0625000  )
        35           Si  tau(  35) = (   0.0625000   0.5625000   0.0625000  )
        36           Si  tau(  36) = (   0.5625000   0.5625000   0.0625000  )
        37           Si  tau(  37) = (   0.0625000   0.0625000   0.5625000  )
        38           Si  tau(  38) = (   0.5625000   0.0625000   0.5625000  )
        39           Si  tau(  39) = (   0.0625000   0.5625000   0.5625000  )
        40           Si  tau(  40) = (   0.5625000   0.5625000   0.5625000  )
        41           Si  tau(  41) = (   0.0625000   0.3125000   0.3125000  )
        42           Si  tau(  42) = (   0.5625000   0.3125000   0.3125000  )
        43           Si  tau(  43) = (   0.0625000   0.8125000   0.3125000  )
        44           Si  tau(  44) = (   0.5625000   0.8125000   0.3125000  )
        45           Si  tau(  45) = (   0.0625000   0.3125000   0.8125000  )
        46           Si  tau(  46) = (   0.5625000   0.3125000   0.8125000  )
        47           Si  tau(  47) = (   0.0625000   0.8125000   0.8125000  )
        48           Si  tau(  48) = (   0.5625000   0.8125000   0.8125000  )
        49           Si  tau(  49) = (   0.3125000   0.0625000   0.3095957  )
        50           Si  tau(  50) = (   0.8125000   0.0625000   0.3125000  )
        51           Si  tau(  51) = (   0.3125000   0.5625000   0.3125000  )
        52           Si  tau(  52) = (   0.8125000   0.5625000   0.3125000  )
        53           Si  tau(  53) = (   0.3125000   0.0625000   0.8125000  )
        54           Si  tau(  54) = (   0.8125000   0.0625000   0.8125000  )
        55           Si  tau(  55) = (   0.3125000   0.5625000   0.8125000  )
        56           Si  tau(  56) = (   0.8125000   0.5625000   0.8125000  )
        57           Si  tau(  57) = (   0.3125000   0.3125000   0.0625000  )
        58           Si  tau(  58) = (   0.8125000   0.3125000   0.0625000  )
        59           Si  tau(  59) = (   0.3125000   0.8125000   0.0625000  )
        60           Si  tau(  60) = (   0.8125000   0.8125000   0.0625000  )
        61           Si  tau(  61) = (   0.3125000   0.3125000   0.5625000  )
        62           Si  tau(  62) = (   0.8125000   0.3125000   0.5625000  )
        63           Si  tau(  63) = (   0.3125000   0.8125000   0.5625000  )
        64           Si  tau(  64) = (   0.8125000   0.8125000   0.5625000  )

     number of k points=     3  gaussian smearing, width (Ry)=  0.0100
                       cart. coord. in units 2pi/alat
        k(    1) = (   0.2500000   0.2500000   0.2500000), wk =   0.5000000
        k(    2) = (  -0.2500000   0.2500000  -0.2500000), wk =   0.5000000
        k(    3) = (   0.2500000  -0.2500000  -0.2500000), wk =   1.0000000

     Dense  grid:   421349 G-vectors     FFT dimensions: (  96,  96,  96)

     Estimated max dynamical RAM per process >       1.99 GB

     Estimated total dynamical RAM >       3.99 GB

     Check: negative/imaginary core charge=   -0.000001    0.000000

     Initial potential from superposition of free atoms

     starting charge  255.96421, renormalised to  256.00000
     Starting wfcs are  256 randomized atomic wfcs

     total cpu time spent up to now is       56.3 secs

     Self-consistent Calculation

     iteration #  1     ecut=    50.00 Ry     beta= 0.70
     Davidson diagonalization with overlap
     ethr =  1.00E-02,  avg # of iterations =  3.0

     Threshold (ethr) on eigenvalues was too large:
     Diagonalizing with lowered threshold

     Davidson diagonalization with overlap
     ethr =  6.78E-04,  avg # of iterations =  2.0

     total cpu time spent up to now is      280.4 secs

     total energy              =    -730.80278422 Ry
     Harris-Foulkes estimate   =    -731.20891001 Ry
     estimated scf accuracy    <       1.72053547 Ry

     iteration #  2     ecut=    50.00 Ry     beta= 0.70
     Davidson diagonalization with overlap
     ethr =  6.72E-04,  avg # of iterations =  1.0

     total cpu time spent up to now is      373.2 secs

     total energy              =    -730.86488031 Ry
     Harris-Foulkes estimate   =    -730.87084457 Ry
     estimated scf accuracy    <       0.08012520 Ry

     iteration #  3     ecut=    50.00 Ry     beta= 0.70
     Davidson diagonalization with overlap
     ethr =  3.13E-05,  avg # of iterations = 10.0

     total cpu time spent up to now is      535.5 secs

     total energy              =    -730.87936534 Ry
     Harris-Foulkes estimate   =    -730.88057797 Ry
     estimated scf accuracy    <       0.00271277 Ry

     iteration #  4     ecut=    50.00 Ry     beta= 0.70
     Davidson diagonalization with overlap
     ethr =  1.06E-06,  avg # of iterations =  4.3

     total cpu time spent up to now is      664.1 secs

     total energy              =    -730.87979420 Ry
     Harris-Foulkes estimate   =    -730.88046011 Ry
     estimated scf accuracy    <       0.00184523 Ry

     iteration #  5     ecut=    50.00 Ry     beta= 0.70
     Davidson diagonalization with overlap
     ethr =  7.21E-07,  avg # of iterations =  2.0

     total cpu time spent up to now is      760.6 secs

     total energy              =    -730.87999738 Ry
     Harris-Foulkes estimate   =    -730.88007610 Ry
     estimated scf accuracy    <       0.00020463 Ry

     iteration #  6     ecut=    50.00 Ry     beta= 0.70
     Davidson diagonalization with overlap
     ethr =  7.99E-08,  avg # of iterations =  3.0

     total cpu time spent up to now is      884.9 secs

     total energy              =    -730.88001226 Ry
     Harris-Foulkes estimate   =    -730.88003515 Ry
     estimated scf accuracy    <       0.00006425 Ry

     iteration #  7     ecut=    50.00 Ry     beta= 0.70
     Davidson diagonalization with overlap
     ethr =  2.51E-08,  avg # of iterations =  2.0

     total cpu time spent up to now is     1008.7 secs

     total energy              =    -730.88002200 Ry
     Harris-Foulkes estimate   =    -730.88002228 Ry
     estimated scf accuracy    <       0.00000251 Ry

     iteration #  8     ecut=    50.00 Ry     beta= 0.70
     Davidson diagonalization with overlap
     ethr =  9.80E-10,  avg # of iterations =  3.0

     total cpu time spent up to now is     1175.6 secs

     total energy              =    -730.88002256 Ry
     Harris-Foulkes estimate   =    -730.88002300 Ry
     estimated scf accuracy    <       0.00000181 Ry

     iteration #  9     ecut=    50.00 Ry     beta= 0.70
     Davidson diagonalization with overlap
     ethr =  7.05E-10,  avg # of iterations =  1.0

     total cpu time spent up to now is     1297.4 secs

     total energy              =    -730.88002248 Ry
     Harris-Foulkes estimate   =    -730.88002266 Ry
     estimated scf accuracy    <       0.00000051 Ry

     iteration # 10     ecut=    50.00 Ry     beta= 0.70
     Davidson diagonalization with overlap
     ethr =  1.99E-10,  avg # of iterations =  2.0

     total cpu time spent up to now is     1423.6 secs

     total energy              =    -730.88002250 Ry
     Harris-Foulkes estimate   =    -730.88002253 Ry
     estimated scf accuracy    <       0.00000008 Ry

     iteration # 11     ecut=    50.00 Ry     beta= 0.70
     Davidson diagonalization with overlap
     ethr =  3.00E-11,  avg # of iterations =  3.0

     total cpu time spent up to now is     1564.4 secs

     total energy              =    -730.88002251 Ry
     Harris-Foulkes estimate   =    -730.88002252 Ry
     estimated scf accuracy    <       0.00000002 Ry

     iteration # 12     ecut=    50.00 Ry     beta= 0.70
     Davidson diagonalization with overlap
     ethr =  8.37E-12,  avg # of iterations =  2.7

     total cpu time spent up to now is     1709.0 secs

     End of self-consistent calculation

          k = 0.2500 0.2500 0.2500 ( 52563 PWs)   bands (ev):

    -5.6274  -5.1051  -5.0971  -5.0962  -4.6057  -4.5979  -4.5970  -4.1659
    -4.0726  -4.0649  -4.0637  -3.6658  -3.6517  -3.6507  -3.6493  -3.6483
    -3.6456  -3.4646  -3.4590  -3.4565  -2.9672  -2.9602  -2.9574  -2.6007
    -2.5927  -2.5909  -2.4379  -2.4263  -2.4261  -2.4253  -2.4223  -2.4200
    -0.8928  -0.8870  -0.8840  -0.8833  -0.8787  -0.8771  -0.7917  -0.7837
    -0.7810  -0.6697  -0.6673  -0.6617  -0.5950  -0.5823  -0.5817   0.1164
     0.1964   0.2027   0.2044   0.2062   0.2114   0.2155   1.0713   1.0773
     1.0813   1.4088   1.4124   1.4147   2.0165   2.0211   2.0218   2.0246
     2.0253   2.0256   2.0801   2.0833   2.0854   2.6285   2.6319   2.6334
     2.7316   2.7344   2.7360   2.7387   2.7414   2.7435   2.7894   2.7936
     2.7948   3.0930   3.0973   3.1002   3.1027   3.1033   3.1062   3.3641
     3.3654   3.3689   3.3769   3.3811   3.3832   3.7198   3.7277   3.7291
     3.7431   3.7476   3.7499   3.8311   3.8324   3.8373   4.0977   4.0994
     4.1033   4.1076   4.1081   4.1103   4.1454   4.1467   4.1519   4.4027
     4.4637   4.4649   4.4701   4.7065   4.7077   4.7137   4.7614   4.7694
     4.7713   4.9281   4.9329   5.2358   5.2372   5.2452   5.7167   5.7224
     6.9285   6.9323   6.9350   7.3678   7.3702   7.3759   7.5983   7.8550
     7.8575   7.8614   7.9812   7.9833   7.9889   8.1433   8.1445   8.1480
     8.1626   8.1648   8.1702   8.3868   8.3899   8.3960   8.3970   8.3984
     8.4011   8.4471

          k =-0.2500 0.2500-0.2500 ( 52563 PWs)   bands (ev):

    -5.6276  -5.1027  -5.1003  -5.0947  -4.6037  -4.6014  -4.5957  -4.1681
    -4.0714  -4.0686  -4.0631  -3.6571  -3.6547  -3.6541  -3.6509  -3.6450
    -3.6435  -3.4622  -3.4599  -3.4538  -2.9700  -2.9661  -2.9600  -2.5976
    -2.5960  -2.5885  -2.4324  -2.4303  -2.4281  -2.4257  -2.4215  -2.4162
    -0.8919  -0.8912  -0.8861  -0.8838  -0.8808  -0.8749  -0.7914  -0.7891
    -0.7810  -0.6745  -0.6685  -0.6661  -0.5825  -0.5784  -0.5723   0.1238
     0.1953   0.1964   0.2019   0.2046   0.2074   0.2129   1.0769   1.0825
     1.0851   1.4092   1.4115   1.4150   2.0168   2.0204   2.0212   2.0236
     2.0249   2.0265   2.0784   2.0787   2.0846   2.6330   2.6340   2.6386
     2.7276   2.7309   2.7357   2.7360   2.7393   2.7404   2.7851   2.7865
     2.7925   3.0961   3.0976   3.0994   3.1017   3.1045   3.1056   3.3609
     3.3639   3.3647   3.3760   3.3780   3.3812   3.7271   3.7281   3.7337
     3.7494   3.7503   3.7594   3.8271   3.8323   3.8343   4.1049   4.1062
     4.1071   4.1101   4.1114   4.1195   4.1405   4.1465   4.1495   4.4105
     4.4588   4.4628   4.4633   4.7007   4.7068   4.7083   4.7725   4.7777
     4.7809   4.9255   4.9306   5.2275   5.2358   5.2381   5.7120   5.7175
     6.9264   6.9274   6.9318   7.3630   7.3719   7.3744   7.5952   7.8491
     7.8559   7.8588   7.9827   7.9889   7.9908   8.1392   8.1463   8.1470
     8.1622   8.1649   8.1661   8.3914   8.3970   8.3977   8.4018   8.4038
     8.4421   8.6524

          k = 0.2500-0.2500-0.2500 ( 52563 PWs)   bands (ev):

    -5.6275  -5.1034  -5.0989  -5.0957  -4.6043  -4.5998  -4.5967  -4.1671
    -4.0715  -4.0666  -4.0640  -3.6589  -3.6547  -3.6528  -3.6495  -3.6488
    -3.6437  -3.4639  -3.4594  -3.4548  -2.9681  -2.9619  -2.9604  -2.5995
    -2.5943  -2.5893  -2.4335  -2.4291  -2.4280  -2.4240  -2.4234  -2.4180
    -0.8937  -0.8877  -0.8854  -0.8818  -0.8805  -0.8767  -0.7919  -0.7865
    -0.7806  -0.6736  -0.6680  -0.6625  -0.5898  -0.5817  -0.5744   0.1201
     0.1948   0.2004   0.2035   0.2082   0.2096   0.2111   1.0731   1.0796
     1.0846   1.4074   1.4123   1.4161   2.0163   2.0203   2.0218   2.0233
     2.0256   2.0270   2.0788   2.0818   2.0844   2.6301   2.6334   2.6361
     2.7301   2.7311   2.7359   2.7378   2.7405   2.7425   2.7867   2.7908
     2.7935   3.0934   3.0983   3.1005   3.1017   3.1036   3.1062   3.3623
     3.3644   3.3673   3.3751   3.3795   3.3836   3.7235   3.7277   3.7319
     3.7454   3.7494   3.7548   3.8290   3.8333   3.8350   4.0989   4.1036
     4.1068   4.1078   4.1099   4.1157   4.1429   4.1476   4.1496   4.4069
     4.4605   4.4636   4.4676   4.7034   4.7079   4.7104   4.7662   4.7721
     4.7783   4.9249   4.9337   5.2318   5.2374   5.2407   5.7122   5.7221
     6.9270   6.9296   6.9341   7.3666   7.3711   7.3739   7.5967   7.8527
     7.8562   7.8599   7.9814   7.9862   7.9904   8.1424   8.1443   8.1477
     8.1620   8.1640   8.1692   8.3889   8.3936   8.3955   8.3981   8.4009
     8.4034   8.4446

     the Fermi energy is     6.3205 ev

!    total energy              =    -730.88002251 Ry
     Harris-Foulkes estimate   =    -730.88002251 Ry
     estimated scf accuracy    <          2.6E-09 Ry

     The total energy is the sum of the following terms:

     one-electron contribution =     160.47274730 Ry
     hartree contribution      =      35.78741232 Ry
     xc contribution           =    -393.13399841 Ry
     ewald contribution        =    -534.00618372 Ry
     smearing contrib. (-TS)   =      -0.00000000 Ry

     convergence has been achieved in  12 iterations

     Forces acting on atoms (cartesian axes, Ry/au):

     atom    1 type  1   force =    -0.01610677    0.00003519    0.00005969
     atom    2 type  1   force =    -0.00000356    0.00002772   -0.00025495
     atom    3 type  1   force =    -0.00245505    0.00251159   -0.00383894
     atom    4 type  1   force =    -0.00004209    0.00005048    0.00005681
     atom    5 type  1   force =     0.00002652    0.00002610   -0.00002920
     atom    6 type  1   force =    -0.00003657    0.00003107    0.00002009
     atom    7 type  1   force =    -0.00051313    0.00003706    0.00000961
     atom    8 type  1   force =    -0.00000035    0.00002845   -0.00002866
     atom    9 type  1   force =     0.00220644    0.00285095   -0.00384567
     atom   10 type  1   force =     0.00003921    0.00005827    0.00006874
     atom   11 type  1   force =    -0.00047619    0.00014716   -0.00005150
     atom   12 type  1   force =     0.00003057    0.00003776   -0.00026757
     atom   13 type  1   force =    -0.00048884   -0.00007200    0.00011986
     atom   14 type  1   force =     0.00002829    0.00001732   -0.00001796
     atom   15 type  1   force =    -0.00050402   -0.00008974   -0.00014056
     atom   16 type  1   force =     0.00003217    0.00002196    0.00001054
     atom   17 type  1   force =     0.00018196   -0.00014852    0.00028354
     atom   18 type  1   force =     0.00020904   -0.00014388   -0.00048715
     atom   19 type  1   force =    -0.00269263   -0.00274408   -0.00403600
     atom   20 type  1   force =     0.00000622   -0.00005836    0.00013448
     atom   21 type  1   force =     0.00020391    0.00008509   -0.00025156
     atom   22 type  1   force =     0.00020573    0.00008425    0.00024889
     atom   23 type  1   force =     0.00000688   -0.00002797    0.00008652
     atom   24 type  1   force =     0.00001942   -0.00001779   -0.00010238
     atom   25 type  1   force =     0.00274185   -0.00228666   -0.00395050
     atom   26 type  1   force =     0.00027341   -0.00027900   -0.00005795
     atom   27 type  1   force =     0.00028040   -0.00026106    0.00016780
     atom   28 type  1   force =     0.00026625    0.00020159   -0.00014014
     atom   29 type  1   force =     0.00008178   -0.00011372    0.00000058
     atom   30 type  1   force =     0.00006959    0.00004641   -0.00003758
     atom   31 type  1   force =     0.00007273    0.00005035   -0.00002016
     atom   32 type  1   force =     0.00007448   -0.00010643    0.00002892
     atom   33 type  1   force =    -0.00024889   -0.00008425   -0.00020573
     atom   34 type  1   force =     0.00048715    0.00014388   -0.00020904
     atom   35 type  1   force =     0.00010238    0.00001779   -0.00001942
     atom   36 type  1   force =    -0.00013448    0.00005836   -0.00000622
     atom   37 type  1   force =     0.00025156   -0.00008509   -0.00020391
     atom   38 type  1   force =    -0.00028354    0.00014852   -0.00018196
     atom   39 type  1   force =    -0.00008652    0.00002797   -0.00000688
     atom   40 type  1   force =     0.00403600    0.00274408    0.00269263
     atom   41 type  1   force =    -0.00011986    0.00007200    0.00048884
     atom   42 type  1   force =     0.00384567   -0.00285095   -0.00220644
     atom   43 type  1   force =     0.00014056    0.00008974    0.00050402
     atom   44 type  1   force =     0.00005150   -0.00014716    0.00047619
     atom   45 type  1   force =     0.00001796   -0.00001732   -0.00002829
     atom   46 type  1   force =    -0.00006874   -0.00005827   -0.00003921
     atom   47 type  1   force =    -0.00001054   -0.00002196   -0.00003217
     atom   48 type  1   force =     0.00026757   -0.00003776   -0.00003057
     atom   49 type  1   force =    -0.00005969   -0.00003519    0.01610677
     atom   50 type  1   force =     0.00002920   -0.00002610   -0.00002652
     atom   51 type  1   force =     0.00383894   -0.00251159    0.00245505
     atom   52 type  1   force =    -0.00000961   -0.00003706    0.00051313
     atom   53 type  1   force =     0.00025495   -0.00002772    0.00000356
     atom   54 type  1   force =    -0.00002009   -0.00003107    0.00003657
     atom   55 type  1   force =    -0.00005681   -0.00005048    0.00004209
     atom   56 type  1   force =     0.00002866   -0.00002845    0.00000035
     atom   57 type  1   force =     0.00005795    0.00027900   -0.00027341
     atom   58 type  1   force =     0.00003758   -0.00004641   -0.00006959
     atom   59 type  1   force =     0.00014014   -0.00020159   -0.00026625
     atom   60 type  1   force =    -0.00002892    0.00010643   -0.00007448
     atom   61 type  1   force =     0.00395050    0.00228666   -0.00274185
     atom   62 type  1   force =    -0.00000058    0.00011372   -0.00008178
     atom   63 type  1   force =    -0.00016780    0.00026106   -0.00028040
     atom   64 type  1   force =     0.00002016   -0.00005035   -0.00007273

     Total force =     0.027428     Total SCF correction =     0.000090

     Writing output data file pwscf.save/
 
     init_run     :     32.59s CPU     55.44s WALL (       1 calls)
     electrons    :    832.96s CPU   1652.80s WALL (       1 calls)
     forces       :     16.00s CPU     38.60s WALL (       1 calls)

     Called by init_run:
     wfcinit      :     30.67s CPU     52.02s WALL (       1 calls)
     potinit      :      0.28s CPU      0.60s WALL (       1 calls)
     hinit0       :      0.70s CPU      0.96s WALL (       1 calls)

     Called by electrons:
     c_bands      :    706.62s CPU   1391.23s WALL (      13 calls)
     sum_band     :    112.31s CPU    227.78s WALL (      13 calls)
     v_of_rho     :      3.34s CPU      6.77s WALL (      13 calls)
     newd         :     10.34s CPU     26.36s WALL (      13 calls)
     mix_rho      :      1.16s CPU      2.36s WALL (      13 calls)

     Called by c_bands:
     init_us_2    :      8.75s CPU     16.92s WALL (      84 calls)
     cegterg      :    636.80s CPU   1254.94s WALL (      39 calls)

     Called by sum_band:
     sum_band:bec :      0.06s CPU      0.06s WALL (      39 calls)
     addusdens    :     10.95s CPU     27.36s WALL (      13 calls)

     Called by *egterg:
     h_psi        :    466.98s CPU    913.82s WALL (     159 calls)
     s_psi        :     94.63s CPU    182.93s WALL (     159 calls)
     g_psi        :      0.80s CPU      1.56s WALL (     117 calls)
     cdiaghg      :      7.87s CPU     15.17s WALL (     153 calls)

     Called by h_psi:
     h_psi:pot    :    465.62s CPU    907.81s WALL (     159 calls)
     h_psi:calbec :    100.31s CPU    190.70s WALL (     159 calls)
     vloc_psi     :    270.72s CPU    537.37s WALL (     159 calls)
     add_vuspsi   :     94.58s CPU    179.74s WALL (     159 calls)

     General routines
     calbec       :    147.28s CPU    286.07s WALL (     210 calls)
     fft          :      2.53s CPU      5.10s WALL (     156 calls)
     ffts         :      0.18s CPU      0.36s WALL (      13 calls)
     fftw         :    274.79s CPU    571.24s WALL (   37852 calls)
 
     Parallel routines
     fft_scatt_xy :     49.88s CPU     73.63s WALL (   38021 calls)
     fft_scatt_yz :     87.15s CPU    283.89s WALL (   38021 calls)
 
     PWSCF        : 14m42.27s CPU    29m 8.98s WALL

 
   This run was terminated on:  20: 5:57  14Feb2020            

=------------------------------------------------------------------------------=
   JOB DONE.
=------------------------------------------------------------------------------=
