
     Program PWSCF v.6.3MaX starts on 13Feb2020 at 22:32: 0 

     This program is part of the open-source Quantum ESPRESSO suite
     for quantum simulation of materials; please cite
         "P. Giannozzi et al., J. Phys.:Condens. Matter 21 395502 (2009);
         "P. Giannozzi et al., J. Phys.:Condens. Matter 29 465901 (2017);
          URL http://www.quantum-espresso.org", 
     in publications or presentations arising from this work. More details at
     http://www.quantum-espresso.org/quote

     Parallel version (MPI), running on     2 processors

     MPI processes distributed on     1 nodes
     R & G space division:  proc/nbgrp/npool/nimage =       2
     Waiting for input...
     Reading input from standard input

     Current dimensions of program PWSCF are:
     Max number of different atomic species (ntypx) = 10
     Max number of k-points (npk) =  40000
     Max angular momentum in pseudopotentials (lmaxx) =  3

     Subspace diagonalization in iterative solution of the eigenvalue problem:
     a serial algorithm will be used

 
     Parallelization info
     --------------------
     sticks:   dense  smooth     PW     G-vecs:    dense   smooth      PW
     Min        3392    3392    878               210674   210674   27756
     Max        3393    3393    879               210675   210675   27759
     Sum        6785    6785   1757               421349   421349   55515
 


     bravais-lattice index     =            0
     lattice parameter (alat)  =      20.6591  a.u.
     unit-cell volume          =    8817.2783 (a.u.)^3
     number of atoms/cell      =           64
     number of atomic types    =            1
     number of electrons       =       256.00
     number of Kohn-Sham states=          154
     kinetic-energy cutoff     =      50.0000  Ry
     charge density cutoff     =     200.0000  Ry
     convergence threshold     =      1.0E-08
     mixing beta               =       0.7000
     number of iterations used =            8  plain     mixing
     Exchange-correlation      = PBE ( 1  4  3  4 0 0)

     celldm(1)=  20.659106  celldm(2)=   0.000000  celldm(3)=   0.000000
     celldm(4)=   0.000000  celldm(5)=   0.000000  celldm(6)=   0.000000

     crystal axes: (cart. coord. in units of alat)
               a(1) = (   1.000000   0.000000   0.000000 )  
               a(2) = (   0.000000   1.000000   0.000000 )  
               a(3) = (   0.000000   0.000000   1.000000 )  

     reciprocal axes: (cart. coord. in units 2 pi/alat)
               b(1) = (  1.000000  0.000000  0.000000 )  
               b(2) = (  0.000000  1.000000  0.000000 )  
               b(3) = (  0.000000  0.000000  1.000000 )  


     PseudoPot. # 1 for Si read from file:
     ~/kedar/softwares/SSSP_precision_pseudos/Si.pbe-n-rrkjus_psl.1.0.0.UPF
     MD5 check sum: Not computed, couldn't open file
     Pseudo is Ultrasoft + core correction, Zval =  4.0
     Generated using "atomic" code by A. Dal Corso v.5.1
     Using radial grid of 1141 points,  6 beta functions with: 
                l(1) =   0
                l(2) =   0
                l(3) =   1
                l(4) =   1
                l(5) =   2
                l(6) =   2
     Q(r) pseudized with 0 coefficients 


     atomic species   valence    mass     pseudopotential
        Si             4.00    28.08550     Si( 1.00)

      2 Sym. Ops. (no inversion) found



   Cartesian axes

     site n.     atom                  positions (alat units)
         1           Si  tau(   1) = (   0.4404043   0.4375000   0.4375000  )
         2           Si  tau(   2) = (   0.9375000   0.4375000   0.4375000  )
         3           Si  tau(   3) = (   0.4375000   0.9375000   0.4375000  )
         4           Si  tau(   4) = (   0.9375000   0.9375000   0.4375000  )
         5           Si  tau(   5) = (   0.4375000   0.4375000   0.9375000  )
         6           Si  tau(   6) = (   0.9375000   0.4375000   0.9375000  )
         7           Si  tau(   7) = (   0.4375000   0.9375000   0.9375000  )
         8           Si  tau(   8) = (   0.9375000   0.9375000   0.9375000  )
         9           Si  tau(   9) = (   0.4404043   0.1875000   0.1875000  )
        10           Si  tau(  10) = (   0.9375000   0.1875000   0.1875000  )
        11           Si  tau(  11) = (   0.4375000   0.6875000   0.1875000  )
        12           Si  tau(  12) = (   0.9375000   0.6875000   0.1875000  )
        13           Si  tau(  13) = (   0.4375000   0.1875000   0.6875000  )
        14           Si  tau(  14) = (   0.9375000   0.1875000   0.6875000  )
        15           Si  tau(  15) = (   0.4375000   0.6875000   0.6875000  )
        16           Si  tau(  16) = (   0.9375000   0.6875000   0.6875000  )
        17           Si  tau(  17) = (   0.1875000   0.4375000   0.1875000  )
        18           Si  tau(  18) = (   0.6875000   0.4375000   0.1875000  )
        19           Si  tau(  19) = (   0.1875000   0.9375000   0.1875000  )
        20           Si  tau(  20) = (   0.6875000   0.9375000   0.1875000  )
        21           Si  tau(  21) = (   0.1875000   0.4375000   0.6875000  )
        22           Si  tau(  22) = (   0.6875000   0.4375000   0.6875000  )
        23           Si  tau(  23) = (   0.1875000   0.9375000   0.6875000  )
        24           Si  tau(  24) = (   0.6875000   0.9375000   0.6875000  )
        25           Si  tau(  25) = (   0.1875000   0.1875000   0.4375000  )
        26           Si  tau(  26) = (   0.6875000   0.1875000   0.4375000  )
        27           Si  tau(  27) = (   0.1875000   0.6875000   0.4375000  )
        28           Si  tau(  28) = (   0.6875000   0.6875000   0.4375000  )
        29           Si  tau(  29) = (   0.1875000   0.1875000   0.9375000  )
        30           Si  tau(  30) = (   0.6875000   0.1875000   0.9375000  )
        31           Si  tau(  31) = (   0.1875000   0.6875000   0.9375000  )
        32           Si  tau(  32) = (   0.6875000   0.6875000   0.9375000  )
        33           Si  tau(  33) = (   0.0625000   0.0625000   0.0625000  )
        34           Si  tau(  34) = (   0.5625000   0.0625000   0.0625000  )
        35           Si  tau(  35) = (   0.0625000   0.5625000   0.0625000  )
        36           Si  tau(  36) = (   0.5625000   0.5625000   0.0625000  )
        37           Si  tau(  37) = (   0.0625000   0.0625000   0.5625000  )
        38           Si  tau(  38) = (   0.5625000   0.0625000   0.5625000  )
        39           Si  tau(  39) = (   0.0625000   0.5625000   0.5625000  )
        40           Si  tau(  40) = (   0.5625000   0.5625000   0.5625000  )
        41           Si  tau(  41) = (   0.0625000   0.3125000   0.3125000  )
        42           Si  tau(  42) = (   0.5625000   0.3125000   0.3125000  )
        43           Si  tau(  43) = (   0.0625000   0.8125000   0.3125000  )
        44           Si  tau(  44) = (   0.5625000   0.8125000   0.3125000  )
        45           Si  tau(  45) = (   0.0625000   0.3125000   0.8125000  )
        46           Si  tau(  46) = (   0.5625000   0.3125000   0.8125000  )
        47           Si  tau(  47) = (   0.0625000   0.8125000   0.8125000  )
        48           Si  tau(  48) = (   0.5625000   0.8125000   0.8125000  )
        49           Si  tau(  49) = (   0.3125000   0.0625000   0.3125000  )
        50           Si  tau(  50) = (   0.8125000   0.0625000   0.3125000  )
        51           Si  tau(  51) = (   0.3125000   0.5625000   0.3125000  )
        52           Si  tau(  52) = (   0.8125000   0.5625000   0.3125000  )
        53           Si  tau(  53) = (   0.3125000   0.0625000   0.8125000  )
        54           Si  tau(  54) = (   0.8125000   0.0625000   0.8125000  )
        55           Si  tau(  55) = (   0.3125000   0.5625000   0.8125000  )
        56           Si  tau(  56) = (   0.8125000   0.5625000   0.8125000  )
        57           Si  tau(  57) = (   0.3125000   0.3125000   0.0625000  )
        58           Si  tau(  58) = (   0.8125000   0.3125000   0.0625000  )
        59           Si  tau(  59) = (   0.3125000   0.8125000   0.0625000  )
        60           Si  tau(  60) = (   0.8125000   0.8125000   0.0625000  )
        61           Si  tau(  61) = (   0.3125000   0.3125000   0.5625000  )
        62           Si  tau(  62) = (   0.8125000   0.3125000   0.5625000  )
        63           Si  tau(  63) = (   0.3125000   0.8125000   0.5625000  )
        64           Si  tau(  64) = (   0.8125000   0.8125000   0.5625000  )

     number of k points=     3  gaussian smearing, width (Ry)=  0.0100
                       cart. coord. in units 2pi/alat
        k(    1) = (   0.2500000   0.2500000   0.2500000), wk =   0.5000000
        k(    2) = (  -0.2500000   0.2500000  -0.2500000), wk =   1.0000000
        k(    3) = (   0.2500000  -0.2500000  -0.2500000), wk =   0.5000000

     Dense  grid:   421349 G-vectors     FFT dimensions: (  96,  96,  96)

     Estimated max dynamical RAM per process >       1.99 GB

     Estimated total dynamical RAM >       3.99 GB

     Check: negative/imaginary core charge=   -0.000001    0.000000

     Initial potential from superposition of free atoms

     starting charge  255.96421, renormalised to  256.00000
     Starting wfcs are  256 randomized atomic wfcs

     total cpu time spent up to now is       54.5 secs

     Self-consistent Calculation

     iteration #  1     ecut=    50.00 Ry     beta= 0.70
     Davidson diagonalization with overlap
     ethr =  1.00E-02,  avg # of iterations =  3.0

     Threshold (ethr) on eigenvalues was too large:
     Diagonalizing with lowered threshold

     Davidson diagonalization with overlap
     ethr =  6.78E-04,  avg # of iterations =  2.0

     total cpu time spent up to now is      268.0 secs

     total energy              =    -730.80277152 Ry
     Harris-Foulkes estimate   =    -731.20888131 Ry
     estimated scf accuracy    <       1.72050125 Ry

     iteration #  2     ecut=    50.00 Ry     beta= 0.70
     Davidson diagonalization with overlap
     ethr =  6.72E-04,  avg # of iterations =  1.0

     total cpu time spent up to now is      353.8 secs

     total energy              =    -730.86485676 Ry
     Harris-Foulkes estimate   =    -730.87082412 Ry
     estimated scf accuracy    <       0.08013057 Ry

     iteration #  3     ecut=    50.00 Ry     beta= 0.70
     Davidson diagonalization with overlap
     ethr =  3.13E-05,  avg # of iterations = 10.3

     total cpu time spent up to now is      504.9 secs

     total energy              =    -730.87932245 Ry
     Harris-Foulkes estimate   =    -730.88055556 Ry
     estimated scf accuracy    <       0.00273428 Ry

     iteration #  4     ecut=    50.00 Ry     beta= 0.70
     Davidson diagonalization with overlap
     ethr =  1.07E-06,  avg # of iterations =  4.3

     total cpu time spent up to now is      668.3 secs

     total energy              =    -730.87968422 Ry
     Harris-Foulkes estimate   =    -730.88050522 Ry
     estimated scf accuracy    <       0.00234199 Ry

     iteration #  5     ecut=    50.00 Ry     beta= 0.70
     Davidson diagonalization with overlap
     ethr =  9.15E-07,  avg # of iterations =  2.0

     total cpu time spent up to now is      870.3 secs

     total energy              =    -730.87996200 Ry
     Harris-Foulkes estimate   =    -730.88006069 Ry
     estimated scf accuracy    <       0.00028150 Ry

     iteration #  6     ecut=    50.00 Ry     beta= 0.70
     Davidson diagonalization with overlap
     ethr =  1.10E-07,  avg # of iterations =  3.0

     total cpu time spent up to now is     1067.5 secs

     total energy              =    -730.87998218 Ry
     Harris-Foulkes estimate   =    -730.88001038 Ry
     estimated scf accuracy    <       0.00007077 Ry

     iteration #  7     ecut=    50.00 Ry     beta= 0.70
     Davidson diagonalization with overlap
     ethr =  2.76E-08,  avg # of iterations =  2.0

     total cpu time spent up to now is     1250.2 secs

     total energy              =    -730.87999301 Ry
     Harris-Foulkes estimate   =    -730.87999343 Ry
     estimated scf accuracy    <       0.00000286 Ry

     iteration #  8     ecut=    50.00 Ry     beta= 0.70
     Davidson diagonalization with overlap
     ethr =  1.12E-09,  avg # of iterations =  3.0

     total cpu time spent up to now is     1466.4 secs

     total energy              =    -730.87999362 Ry
     Harris-Foulkes estimate   =    -730.87999405 Ry
     estimated scf accuracy    <       0.00000181 Ry

     iteration #  9     ecut=    50.00 Ry     beta= 0.70
     Davidson diagonalization with overlap
     ethr =  7.06E-10,  avg # of iterations =  1.0

     total cpu time spent up to now is     1616.5 secs

     total energy              =    -730.87999353 Ry
     Harris-Foulkes estimate   =    -730.87999373 Ry
     estimated scf accuracy    <       0.00000060 Ry

     iteration # 10     ecut=    50.00 Ry     beta= 0.70
     Davidson diagonalization with overlap
     ethr =  2.34E-10,  avg # of iterations =  1.7

     total cpu time spent up to now is     1774.7 secs

     total energy              =    -730.87999354 Ry
     Harris-Foulkes estimate   =    -730.87999358 Ry
     estimated scf accuracy    <       0.00000011 Ry

     iteration # 11     ecut=    50.00 Ry     beta= 0.70
     Davidson diagonalization with overlap
     ethr =  4.33E-11,  avg # of iterations =  2.3

     total cpu time spent up to now is     1951.2 secs

     total energy              =    -730.87999355 Ry
     Harris-Foulkes estimate   =    -730.87999355 Ry
     estimated scf accuracy    <       0.00000001 Ry

     iteration # 12     ecut=    50.00 Ry     beta= 0.70
     Davidson diagonalization with overlap
     ethr =  4.63E-12,  avg # of iterations =  3.0

     total cpu time spent up to now is     2148.6 secs

     End of self-consistent calculation

          k = 0.2500 0.2500 0.2500 ( 52563 PWs)   bands (ev):

    -5.6274  -5.1039  -5.0976  -5.0970  -4.6045  -4.5984  -4.5976  -4.1659
    -4.0713  -4.0656  -4.0644  -3.6614  -3.6530  -3.6507  -3.6494  -3.6494
    -3.6475  -3.4661  -3.4575  -3.4564  -2.9657  -2.9614  -2.9576  -2.5994
    -2.5934  -2.5915  -2.4373  -2.4269  -2.4254  -2.4239  -2.4230  -2.4213
    -0.8973  -0.8847  -0.8835  -0.8813  -0.8785  -0.8771  -0.7872  -0.7867
    -0.7823  -0.6725  -0.6665  -0.6604  -0.5947  -0.5844  -0.5800   0.1165
     0.1955   0.2041   0.2047   0.2072   0.2114   0.2136   1.0685   1.0790
     1.0825   1.4064   1.4138   1.4157   2.0162   2.0210   2.0231   2.0234
     2.0242   2.0277   2.0796   2.0838   2.0849   2.6294   2.6312   2.6332
     2.7334   2.7340   2.7371   2.7385   2.7407   2.7427   2.7874   2.7931
     2.7967   3.0912   3.0999   3.1009   3.1018   3.1027   3.1058   3.3637
     3.3665   3.3680   3.3746   3.3830   3.3837   3.7201   3.7274   3.7294
     3.7417   3.7479   3.7505   3.8299   3.8334   3.8376   4.0926   4.1028
     4.1053   4.1075   4.1084   4.1099   4.1443   4.1476   4.1521   4.4026
     4.4640   4.4662   4.4689   4.7049   4.7086   4.7140   4.7609   4.7698
     4.7720   4.9255   4.9354   5.2345   5.2381   5.2457   5.7139   5.7252
     6.9266   6.9344   6.9349   7.3653   7.3716   7.3772   7.5982   7.8523
     7.8585   7.8630   7.9815   7.9821   7.9902   8.1420   8.1444   8.1495
     8.1616   8.1671   8.1686   8.3852   8.3910   8.3959   8.3972   8.3980
     8.4021   8.4463

          k =-0.2500 0.2500-0.2500 ( 52563 PWs)   bands (ev):

    -5.6276  -5.1025  -5.0991  -5.0960  -4.6036  -4.5999  -4.5973  -4.1683
    -4.0708  -4.0679  -4.0642  -3.6572  -3.6566  -3.6532  -3.6511  -3.6465
    -3.6413  -3.4623  -3.4614  -3.4521  -2.9696  -2.9648  -2.9616  -2.5973
    -2.5947  -2.5901  -2.4317  -2.4312  -2.4279  -2.4257  -2.4218  -2.4157
    -0.8914  -0.8900  -0.8859  -0.8840  -0.8793  -0.8780  -0.7901  -0.7867
    -0.7854  -0.6750  -0.6700  -0.6639  -0.5825  -0.5785  -0.5721   0.1239
     0.1953   0.1985   0.2025   0.2042   0.2085   0.2094   1.0785   1.0822
     1.0836   1.4090   1.4093   1.4174   2.0176   2.0184   2.0227   2.0228
     2.0238   2.0281   2.0781   2.0795   2.0842   2.6336   2.6354   2.6367
     2.7275   2.7288   2.7353   2.7375   2.7399   2.7406   2.7858   2.7865
     2.7924   3.0950   3.0982   3.1002   3.1011   3.1046   3.1057   3.3606
     3.3634   3.3665   3.3752   3.3763   3.3830   3.7273   3.7301   3.7311
     3.7488   3.7533   3.7573   3.8274   3.8328   3.8335   4.1053   4.1063
     4.1074   4.1089   4.1106   4.1205   4.1411   4.1471   4.1484   4.4108
     4.4582   4.4615   4.4648   4.7012   4.7068   4.7078   4.7727   4.7776
     4.7807   4.9230   4.9331   5.2286   5.2359   5.2372   5.7094   5.7203
     6.9255   6.9259   6.9340   7.3657   7.3710   7.3725   7.5952   7.8502
     7.8564   7.8572   7.9818   7.9902   7.9903   8.1407   8.1448   8.1471
     8.1623   8.1628   8.1681   8.3918   8.3953   8.3983   8.4011   8.4025
     8.4025   8.4417

          k = 0.2500-0.2500-0.2500 ( 52563 PWs)   bands (ev):

    -5.6274  -5.1039  -5.0976  -5.0970  -4.6045  -4.5984  -4.5977  -4.1659
    -4.0713  -4.0656  -4.0644  -3.6614  -3.6530  -3.6507  -3.6494  -3.6494
    -3.6475  -3.4661  -3.4575  -3.4564  -2.9657  -2.9614  -2.9576  -2.5994
    -2.5934  -2.5915  -2.4373  -2.4269  -2.4254  -2.4239  -2.4230  -2.4213
    -0.8973  -0.8847  -0.8835  -0.8813  -0.8785  -0.8771  -0.7872  -0.7867
    -0.7823  -0.6725  -0.6665  -0.6604  -0.5947  -0.5844  -0.5800   0.1165
     0.1955   0.2041   0.2047   0.2072   0.2114   0.2136   1.0685   1.0790
     1.0825   1.4064   1.4138   1.4157   2.0162   2.0210   2.0231   2.0234
     2.0242   2.0277   2.0796   2.0838   2.0849   2.6294   2.6312   2.6332
     2.7334   2.7340   2.7371   2.7385   2.7407   2.7427   2.7874   2.7931
     2.7967   3.0912   3.0999   3.1009   3.1018   3.1027   3.1058   3.3637
     3.3665   3.3680   3.3746   3.3830   3.3837   3.7201   3.7274   3.7294
     3.7417   3.7479   3.7505   3.8299   3.8334   3.8376   4.0926   4.1028
     4.1053   4.1075   4.1084   4.1099   4.1443   4.1476   4.1521   4.4026
     4.4640   4.4662   4.4689   4.7049   4.7086   4.7140   4.7609   4.7698
     4.7720   4.9255   4.9354   5.2345   5.2381   5.2457   5.7139   5.7252
     6.9266   6.9344   6.9349   7.3653   7.3716   7.3772   7.5982   7.8523
     7.8585   7.8630   7.9815   7.9821   7.9902   8.1420   8.1444   8.1495
     8.1616   8.1671   8.1686   8.3860   8.3913   8.3969   8.3979   8.4006
     8.4459   8.6536

     the Fermi energy is     6.3215 ev

!    total energy              =    -730.87999355 Ry
     Harris-Foulkes estimate   =    -730.87999355 Ry
     estimated scf accuracy    <          2.1E-09 Ry

     The total energy is the sum of the following terms:

     one-electron contribution =     160.47237274 Ry
     hartree contribution      =      35.78758359 Ry
     xc contribution           =    -393.13398433 Ry
     ewald contribution        =    -534.00596555 Ry
     smearing contrib. (-TS)   =      -0.00000000 Ry

     convergence has been achieved in  12 iterations

     Forces acting on atoms (cartesian axes, Ry/au):

     atom    1 type  1   force =    -0.01658865   -0.00011443   -0.00011443
     atom    2 type  1   force =     0.00002630   -0.00000836   -0.00000836
     atom    3 type  1   force =    -0.00047027   -0.00011044    0.00010945
     atom    4 type  1   force =    -0.00000454   -0.00000990    0.00000885
     atom    5 type  1   force =    -0.00047027    0.00010945   -0.00011044
     atom    6 type  1   force =    -0.00000454    0.00000885   -0.00000990
     atom    7 type  1   force =    -0.00100518    0.00011519    0.00011519
     atom    8 type  1   force =     0.00002691    0.00000957    0.00000957
     atom    9 type  1   force =    -0.01658873    0.00011423    0.00011423
     atom   10 type  1   force =     0.00002618    0.00000866    0.00000866
     atom   11 type  1   force =    -0.00047035    0.00011027   -0.00010915
     atom   12 type  1   force =    -0.00000452    0.00000975   -0.00000866
     atom   13 type  1   force =    -0.00047035   -0.00010915    0.00011027
     atom   14 type  1   force =    -0.00000452   -0.00000866    0.00000975
     atom   15 type  1   force =    -0.00100565   -0.00011489   -0.00011489
     atom   16 type  1   force =     0.00002723   -0.00000999   -0.00000999
     atom   17 type  1   force =     0.00046100   -0.00033483    0.00033447
     atom   18 type  1   force =     0.00047589    0.00011671   -0.00011681
     atom   19 type  1   force =     0.00027450    0.00021419   -0.00018500
     atom   20 type  1   force =     0.00028167   -0.00023911   -0.00003819
     atom   21 type  1   force =     0.00027422    0.00018540   -0.00021399
     atom   22 type  1   force =     0.00028181    0.00003810    0.00023951
     atom   23 type  1   force =     0.00008756   -0.00006682    0.00006663
     atom   24 type  1   force =     0.00008828    0.00008510   -0.00008552
     atom   25 type  1   force =     0.00046100    0.00033447   -0.00033483
     atom   26 type  1   force =     0.00047589   -0.00011681    0.00011671
     atom   27 type  1   force =     0.00027422   -0.00021399    0.00018540
     atom   28 type  1   force =     0.00028181    0.00023951    0.00003810
     atom   29 type  1   force =     0.00027450   -0.00018500    0.00021419
     atom   30 type  1   force =     0.00028167   -0.00003819   -0.00023911
     atom   31 type  1   force =     0.00008756    0.00006663   -0.00006682
     atom   32 type  1   force =     0.00008828   -0.00008552    0.00008510
     atom   33 type  1   force =    -0.00003090   -0.00000595   -0.00000595
     atom   34 type  1   force =     0.00421787   -0.00270747   -0.00270747
     atom   35 type  1   force =     0.00005334    0.00000144   -0.00000172
     atom   36 type  1   force =    -0.00011705    0.00001124   -0.00001144
     atom   37 type  1   force =     0.00005334   -0.00000172    0.00000144
     atom   38 type  1   force =    -0.00011705   -0.00001144    0.00001124
     atom   39 type  1   force =    -0.00003125    0.00000614    0.00000614
     atom   40 type  1   force =     0.00421793    0.00270721    0.00270721
     atom   41 type  1   force =    -0.00001965   -0.00000010   -0.00000010
     atom   42 type  1   force =     0.00792105    0.00000004    0.00000004
     atom   43 type  1   force =     0.00005328    0.00000010    0.00000019
     atom   44 type  1   force =    -0.00011757   -0.00000011    0.00000010
     atom   45 type  1   force =     0.00005328    0.00000019    0.00000010
     atom   46 type  1   force =    -0.00011757    0.00000010   -0.00000011
     atom   47 type  1   force =    -0.00004038    0.00000002    0.00000002
     atom   48 type  1   force =     0.00051773   -0.00000001   -0.00000001
     atom   49 type  1   force =     0.00378230    0.00247306   -0.00246142
     atom   50 type  1   force =     0.00001901    0.00000940   -0.00000773
     atom   51 type  1   force =     0.00378284   -0.00247319    0.00246134
     atom   52 type  1   force =     0.00001913   -0.00000918    0.00000779
     atom   53 type  1   force =     0.00019821    0.00002435   -0.00000846
     atom   54 type  1   force =     0.00000897   -0.00000092    0.00000405
     atom   55 type  1   force =     0.00019811   -0.00002405    0.00000854
     atom   56 type  1   force =     0.00000877    0.00000060   -0.00000382
     atom   57 type  1   force =     0.00378230   -0.00246142    0.00247306
     atom   58 type  1   force =     0.00001901   -0.00000773    0.00000940
     atom   59 type  1   force =     0.00019821   -0.00000846    0.00002435
     atom   60 type  1   force =     0.00000897    0.00000405   -0.00000092
     atom   61 type  1   force =     0.00378284    0.00246134   -0.00247319
     atom   62 type  1   force =     0.00001913    0.00000779   -0.00000918
     atom   63 type  1   force =     0.00019811    0.00000854   -0.00002405
     atom   64 type  1   force =     0.00000877   -0.00000382    0.00000060

     Total force =     0.028110     Total SCF correction =     0.000082

     Writing output data file pwscf.save/
 
     init_run     :     32.71s CPU     53.72s WALL (       1 calls)
     electrons    :    814.07s CPU   2094.19s WALL (       1 calls)
     forces       :     15.55s CPU     48.47s WALL (       1 calls)

     Called by init_run:
     wfcinit      :     30.87s CPU     50.04s WALL (       1 calls)
     potinit      :      0.36s CPU      0.62s WALL (       1 calls)
     hinit0       :      0.40s CPU      0.80s WALL (       1 calls)

     Called by electrons:
     c_bands      :    693.93s CPU   1752.33s WALL (      13 calls)
     sum_band     :    106.83s CPU    295.55s WALL (      13 calls)
     v_of_rho     :      3.18s CPU      8.74s WALL (      13 calls)
     newd         :     10.33s CPU     36.93s WALL (      13 calls)
     mix_rho      :      0.89s CPU      2.68s WALL (      13 calls)

     Called by c_bands:
     init_us_2    :      8.23s CPU     20.63s WALL (      84 calls)
     cegterg      :    624.73s CPU   1578.70s WALL (      39 calls)

     Called by sum_band:
     sum_band:bec :      0.06s CPU      0.06s WALL (      39 calls)
     addusdens    :     10.79s CPU     38.06s WALL (      13 calls)

     Called by *egterg:
     h_psi        :    456.33s CPU   1134.15s WALL (     158 calls)
     s_psi        :     93.86s CPU    232.87s WALL (     158 calls)
     g_psi        :      0.82s CPU      2.16s WALL (     116 calls)
     cdiaghg      :      7.97s CPU     18.32s WALL (     152 calls)

     Called by h_psi:
     h_psi:pot    :    454.85s CPU   1126.57s WALL (     158 calls)
     h_psi:calbec :     97.71s CPU    239.48s WALL (     158 calls)
     vloc_psi     :    262.79s CPU    654.75s WALL (     158 calls)
     add_vuspsi   :     94.35s CPU    232.34s WALL (     158 calls)

     General routines
     calbec       :    143.07s CPU    365.98s WALL (     209 calls)
     fft          :      2.30s CPU      6.39s WALL (     156 calls)
     ffts         :      0.17s CPU      0.41s WALL (      13 calls)
     fftw         :    264.46s CPU    695.33s WALL (   37850 calls)
 
     Parallel routines
     fft_scatt_xy :     48.71s CPU     77.33s WALL (   38019 calls)
     fft_scatt_yz :     79.00s CPU    368.79s WALL (   38019 calls)
 
     PWSCF        : 14m23.24s CPU    36m39.08s WALL

 
   This run was terminated on:  23: 8:39  13Feb2020            

=------------------------------------------------------------------------------=
   JOB DONE.
=------------------------------------------------------------------------------=
