
     Program PWSCF v.6.3MaX starts on 14Feb2020 at 10:37:27 

     This program is part of the open-source Quantum ESPRESSO suite
     for quantum simulation of materials; please cite
         "P. Giannozzi et al., J. Phys.:Condens. Matter 21 395502 (2009);
         "P. Giannozzi et al., J. Phys.:Condens. Matter 29 465901 (2017);
          URL http://www.quantum-espresso.org", 
     in publications or presentations arising from this work. More details at
     http://www.quantum-espresso.org/quote

     Parallel version (MPI), running on     4 processors

     MPI processes distributed on     1 nodes
     R & G space division:  proc/nbgrp/npool/nimage =       4
     Waiting for input...
     Reading input from standard input

     Current dimensions of program PWSCF are:
     Max number of different atomic species (ntypx) = 10
     Max number of k-points (npk) =  40000
     Max angular momentum in pseudopotentials (lmaxx) =  3

     Subspace diagonalization in iterative solution of the eigenvalue problem:
     a serial algorithm will be used

 
     Parallelization info
     --------------------
     sticks:   dense  smooth     PW     G-vecs:    dense   smooth      PW
     Min        1695    1695    439               105337   105337   13877
     Max        1697    1697    440               105338   105338   13880
     Sum        6785    6785   1757               421349   421349   55515
 


     bravais-lattice index     =            0
     lattice parameter (alat)  =      20.6591  a.u.
     unit-cell volume          =    8817.2783 (a.u.)^3
     number of atoms/cell      =           64
     number of atomic types    =            1
     number of electrons       =       256.00
     number of Kohn-Sham states=          154
     kinetic-energy cutoff     =      50.0000  Ry
     charge density cutoff     =     200.0000  Ry
     convergence threshold     =      1.0E-08
     mixing beta               =       0.7000
     number of iterations used =            8  plain     mixing
     Exchange-correlation      = PBE ( 1  4  3  4 0 0)

     celldm(1)=  20.659106  celldm(2)=   0.000000  celldm(3)=   0.000000
     celldm(4)=   0.000000  celldm(5)=   0.000000  celldm(6)=   0.000000

     crystal axes: (cart. coord. in units of alat)
               a(1) = (   1.000000   0.000000   0.000000 )  
               a(2) = (   0.000000   1.000000   0.000000 )  
               a(3) = (   0.000000   0.000000   1.000000 )  

     reciprocal axes: (cart. coord. in units 2 pi/alat)
               b(1) = (  1.000000  0.000000  0.000000 )  
               b(2) = (  0.000000  1.000000  0.000000 )  
               b(3) = (  0.000000  0.000000  1.000000 )  


     PseudoPot. # 1 for Si read from file:
     ~/kedar/softwares/SSSP_precision_pseudos/Si.pbe-n-rrkjus_psl.1.0.0.UPF
     MD5 check sum: Not computed, couldn't open file
     Pseudo is Ultrasoft + core correction, Zval =  4.0
     Generated using "atomic" code by A. Dal Corso v.5.1
     Using radial grid of 1141 points,  6 beta functions with: 
                l(1) =   0
                l(2) =   0
                l(3) =   1
                l(4) =   1
                l(5) =   2
                l(6) =   2
     Q(r) pseudized with 0 coefficients 


     atomic species   valence    mass     pseudopotential
        Si             4.00    28.08550     Si( 1.00)

     No symmetry found



   Cartesian axes

     site n.     atom                  positions (alat units)
         1           Si  tau(   1) = (   0.4404043   0.4375000   0.4375000  )
         2           Si  tau(   2) = (   0.9375000   0.4375000   0.4375000  )
         3           Si  tau(   3) = (   0.4375000   0.9375000   0.4375000  )
         4           Si  tau(   4) = (   0.9375000   0.9375000   0.4375000  )
         5           Si  tau(   5) = (   0.4375000   0.4375000   0.9375000  )
         6           Si  tau(   6) = (   0.9375000   0.4375000   0.9375000  )
         7           Si  tau(   7) = (   0.4375000   0.9375000   0.9375000  )
         8           Si  tau(   8) = (   0.9375000   0.9375000   0.9375000  )
         9           Si  tau(   9) = (   0.4375000   0.1875000   0.1875000  )
        10           Si  tau(  10) = (   0.9375000   0.1875000   0.1875000  )
        11           Si  tau(  11) = (   0.4375000   0.6875000   0.1875000  )
        12           Si  tau(  12) = (   0.9375000   0.6875000   0.1875000  )
        13           Si  tau(  13) = (   0.4375000   0.1875000   0.6875000  )
        14           Si  tau(  14) = (   0.9375000   0.1875000   0.6875000  )
        15           Si  tau(  15) = (   0.4375000   0.6875000   0.6875000  )
        16           Si  tau(  16) = (   0.9375000   0.6875000   0.6875000  )
        17           Si  tau(  17) = (   0.1875000   0.4375000   0.1845957  )
        18           Si  tau(  18) = (   0.6875000   0.4375000   0.1875000  )
        19           Si  tau(  19) = (   0.1875000   0.9375000   0.1875000  )
        20           Si  tau(  20) = (   0.6875000   0.9375000   0.1875000  )
        21           Si  tau(  21) = (   0.1875000   0.4375000   0.6875000  )
        22           Si  tau(  22) = (   0.6875000   0.4375000   0.6875000  )
        23           Si  tau(  23) = (   0.1875000   0.9375000   0.6875000  )
        24           Si  tau(  24) = (   0.6875000   0.9375000   0.6875000  )
        25           Si  tau(  25) = (   0.1875000   0.1875000   0.4375000  )
        26           Si  tau(  26) = (   0.6875000   0.1875000   0.4375000  )
        27           Si  tau(  27) = (   0.1875000   0.6875000   0.4375000  )
        28           Si  tau(  28) = (   0.6875000   0.6875000   0.4375000  )
        29           Si  tau(  29) = (   0.1875000   0.1875000   0.9375000  )
        30           Si  tau(  30) = (   0.6875000   0.1875000   0.9375000  )
        31           Si  tau(  31) = (   0.1875000   0.6875000   0.9375000  )
        32           Si  tau(  32) = (   0.6875000   0.6875000   0.9375000  )
        33           Si  tau(  33) = (   0.0625000   0.0625000   0.0625000  )
        34           Si  tau(  34) = (   0.5625000   0.0625000   0.0625000  )
        35           Si  tau(  35) = (   0.0625000   0.5625000   0.0625000  )
        36           Si  tau(  36) = (   0.5625000   0.5625000   0.0625000  )
        37           Si  tau(  37) = (   0.0625000   0.0625000   0.5625000  )
        38           Si  tau(  38) = (   0.5625000   0.0625000   0.5625000  )
        39           Si  tau(  39) = (   0.0625000   0.5625000   0.5625000  )
        40           Si  tau(  40) = (   0.5625000   0.5625000   0.5625000  )
        41           Si  tau(  41) = (   0.0625000   0.3125000   0.3125000  )
        42           Si  tau(  42) = (   0.5625000   0.3125000   0.3125000  )
        43           Si  tau(  43) = (   0.0625000   0.8125000   0.3125000  )
        44           Si  tau(  44) = (   0.5625000   0.8125000   0.3125000  )
        45           Si  tau(  45) = (   0.0625000   0.3125000   0.8125000  )
        46           Si  tau(  46) = (   0.5625000   0.3125000   0.8125000  )
        47           Si  tau(  47) = (   0.0625000   0.8125000   0.8125000  )
        48           Si  tau(  48) = (   0.5625000   0.8125000   0.8125000  )
        49           Si  tau(  49) = (   0.3125000   0.0625000   0.3125000  )
        50           Si  tau(  50) = (   0.8125000   0.0625000   0.3125000  )
        51           Si  tau(  51) = (   0.3125000   0.5625000   0.3125000  )
        52           Si  tau(  52) = (   0.8125000   0.5625000   0.3125000  )
        53           Si  tau(  53) = (   0.3125000   0.0625000   0.8125000  )
        54           Si  tau(  54) = (   0.8125000   0.0625000   0.8125000  )
        55           Si  tau(  55) = (   0.3125000   0.5625000   0.8125000  )
        56           Si  tau(  56) = (   0.8125000   0.5625000   0.8125000  )
        57           Si  tau(  57) = (   0.3125000   0.3125000   0.0625000  )
        58           Si  tau(  58) = (   0.8125000   0.3125000   0.0625000  )
        59           Si  tau(  59) = (   0.3125000   0.8125000   0.0625000  )
        60           Si  tau(  60) = (   0.8125000   0.8125000   0.0625000  )
        61           Si  tau(  61) = (   0.3125000   0.3125000   0.5625000  )
        62           Si  tau(  62) = (   0.8125000   0.3125000   0.5625000  )
        63           Si  tau(  63) = (   0.3125000   0.8125000   0.5625000  )
        64           Si  tau(  64) = (   0.8125000   0.8125000   0.5625000  )

     number of k points=     4  gaussian smearing, width (Ry)=  0.0100
                       cart. coord. in units 2pi/alat
        k(    1) = (   0.2500000   0.2500000   0.2500000), wk =   0.5000000
        k(    2) = (  -0.2500000  -0.2500000   0.2500000), wk =   0.5000000
        k(    3) = (  -0.2500000   0.2500000  -0.2500000), wk =   0.5000000
        k(    4) = (   0.2500000  -0.2500000  -0.2500000), wk =   0.5000000

     Dense  grid:   421349 G-vectors     FFT dimensions: (  96,  96,  96)

     Estimated max dynamical RAM per process >       1.03 GB

     Estimated total dynamical RAM >       4.12 GB

     Check: negative/imaginary core charge=   -0.000001    0.000000

     Initial potential from superposition of free atoms

     starting charge  255.96421, renormalised to  256.00000
     Starting wfcs are  256 randomized atomic wfcs

     total cpu time spent up to now is       25.5 secs

     Self-consistent Calculation

     iteration #  1     ecut=    50.00 Ry     beta= 0.70
     Davidson diagonalization with overlap
     ethr =  1.00E-02,  avg # of iterations =  3.0

     Threshold (ethr) on eigenvalues was too large:
     Diagonalizing with lowered threshold

     Davidson diagonalization with overlap
     ethr =  6.78E-04,  avg # of iterations =  2.0

     total cpu time spent up to now is      180.9 secs

     total energy              =    -730.80299750 Ry
     Harris-Foulkes estimate   =    -731.20915917 Ry
     estimated scf accuracy    <       1.72061316 Ry

     iteration #  2     ecut=    50.00 Ry     beta= 0.70
     Davidson diagonalization with overlap
     ethr =  6.72E-04,  avg # of iterations =  1.0

     total cpu time spent up to now is      243.9 secs

     total energy              =    -730.86494622 Ry
     Harris-Foulkes estimate   =    -730.87092544 Ry
     estimated scf accuracy    <       0.08014810 Ry

     iteration #  3     ecut=    50.00 Ry     beta= 0.70
     Davidson diagonalization with overlap
     ethr =  3.13E-05,  avg # of iterations = 10.2

     total cpu time spent up to now is      357.7 secs

     total energy              =    -730.87929183 Ry
     Harris-Foulkes estimate   =    -730.88057306 Ry
     estimated scf accuracy    <       0.00277729 Ry

     iteration #  4     ecut=    50.00 Ry     beta= 0.70
     Davidson diagonalization with overlap
     ethr =  1.08E-06,  avg # of iterations =  4.0

     total cpu time spent up to now is      455.2 secs

     total energy              =    -730.87960239 Ry
     Harris-Foulkes estimate   =    -730.88062755 Ry
     estimated scf accuracy    <       0.00282394 Ry

     iteration #  5     ecut=    50.00 Ry     beta= 0.70
     Davidson diagonalization with overlap
     ethr =  1.08E-06,  avg # of iterations =  2.0

     total cpu time spent up to now is      527.9 secs

     total energy              =    -730.87998092 Ry
     Harris-Foulkes estimate   =    -730.88007146 Ry
     estimated scf accuracy    <       0.00025470 Ry

     iteration #  6     ecut=    50.00 Ry     beta= 0.70
     Davidson diagonalization with overlap
     ethr =  9.95E-08,  avg # of iterations =  3.0

     total cpu time spent up to now is      606.9 secs

     total energy              =    -730.87999998 Ry
     Harris-Foulkes estimate   =    -730.88003000 Ry
     estimated scf accuracy    <       0.00008043 Ry

     iteration #  7     ecut=    50.00 Ry     beta= 0.70
     Davidson diagonalization with overlap
     ethr =  3.14E-08,  avg # of iterations =  2.0

     total cpu time spent up to now is      680.0 secs

     total energy              =    -730.88001145 Ry
     Harris-Foulkes estimate   =    -730.88001202 Ry
     estimated scf accuracy    <       0.00000302 Ry

     iteration #  8     ecut=    50.00 Ry     beta= 0.70
     Davidson diagonalization with overlap
     ethr =  1.18E-09,  avg # of iterations =  3.0

     total cpu time spent up to now is      772.1 secs

     total energy              =    -730.88001239 Ry
     Harris-Foulkes estimate   =    -730.88001281 Ry
     estimated scf accuracy    <       0.00000192 Ry

     iteration #  9     ecut=    50.00 Ry     beta= 0.70
     Davidson diagonalization with overlap
     ethr =  7.52E-10,  avg # of iterations =  2.0

     total cpu time spent up to now is      838.2 secs

     total energy              =    -730.88001229 Ry
     Harris-Foulkes estimate   =    -730.88001251 Ry
     estimated scf accuracy    <       0.00000075 Ry

     iteration # 10     ecut=    50.00 Ry     beta= 0.70
     Davidson diagonalization with overlap
     ethr =  2.94E-10,  avg # of iterations =  2.0

     total cpu time spent up to now is      903.3 secs

     total energy              =    -730.88001228 Ry
     Harris-Foulkes estimate   =    -730.88001235 Ry
     estimated scf accuracy    <       0.00000017 Ry

     iteration # 11     ecut=    50.00 Ry     beta= 0.70
     Davidson diagonalization with overlap
     ethr =  6.76E-11,  avg # of iterations =  2.0

     total cpu time spent up to now is      976.2 secs

     total energy              =    -730.88001229 Ry
     Harris-Foulkes estimate   =    -730.88001230 Ry
     estimated scf accuracy    <       0.00000001 Ry

     iteration # 12     ecut=    50.00 Ry     beta= 0.70
     Davidson diagonalization with overlap
     ethr =  5.17E-12,  avg # of iterations =  3.0

     total cpu time spent up to now is     1061.1 secs

     End of self-consistent calculation

          k = 0.2500 0.2500 0.2500 ( 52563 PWs)   bands (ev):

    -5.6275  -5.1031  -5.1000  -5.0950  -4.6038  -4.6009  -4.5960  -4.1671
    -4.0710  -4.0682  -4.0628  -3.6602  -3.6539  -3.6530  -3.6506  -3.6496
    -3.6411  -3.4640  -3.4594  -3.4546  -2.9669  -2.9649  -2.9585  -2.5994
    -2.5943  -2.5894  -2.4345  -2.4283  -2.4277  -2.4252  -2.4238  -2.4163
    -0.8932  -0.8873  -0.8848  -0.8834  -0.8812  -0.8756  -0.7918  -0.7865
    -0.7807  -0.6737  -0.6682  -0.6622  -0.5878  -0.5819  -0.5765   0.1201
     0.1950   0.2005   0.2043   0.2051   0.2085   0.2141   1.0739   1.0787
     1.0846   1.4078   1.4117   1.4163   2.0177   2.0202   2.0208   2.0229
     2.0242   2.0281   2.0794   2.0814   2.0846   2.6303   2.6333   2.6361
     2.7303   2.7325   2.7354   2.7370   2.7409   2.7417   2.7865   2.7895
     2.7951   3.0951   3.0974   3.0997   3.1003   3.1026   3.1084   3.3628
     3.3647   3.3662   3.3753   3.3798   3.3833   3.7236   3.7282   3.7307
     3.7453   3.7497   3.7551   3.8296   3.8320   3.8356   4.0987   4.1050
     4.1060   4.1074   4.1099   4.1158   4.1436   4.1460   4.1506   4.4068
     4.4616   4.4640   4.4660   4.7041   4.7070   4.7108   4.7677   4.7718
     4.7772   4.9249   4.9336   5.2324   5.2362   5.2413   5.7122   5.7221
     6.9270   6.9301   6.9337   7.3654   7.3718   7.3743   7.5967   7.8514
     7.8575   7.8599   7.9814   7.9862   7.9906   8.1406   8.1455   8.1480
     8.1631   8.1650   8.1673   8.3895   8.3932   8.3959   8.3970   8.4005
     8.4043   8.4443

          k =-0.2500-0.2500 0.2500 ( 52563 PWs)   bands (ev):

    -5.6276  -5.1025  -5.1013  -5.0939  -4.6035  -4.6024  -4.5950  -4.1681
    -4.0711  -4.0696  -4.0626  -3.6552  -3.6544  -3.6536  -3.6525  -3.6499
    -3.6398  -3.4622  -3.4595  -3.4542  -2.9690  -2.9670  -2.9602  -2.5974
    -2.5940  -2.5904  -2.4307  -2.4290  -2.4277  -2.4263  -2.4250  -2.4155
    -0.8900  -0.8891  -0.8861  -0.8842  -0.8811  -0.8775  -0.7910  -0.7868
    -0.7843  -0.6738  -0.6686  -0.6671  -0.5835  -0.5777  -0.5718   0.1239
     0.1977   0.1980   0.2020   0.2024   0.2085   0.2097   1.0767   1.0821
     1.0858   1.4091   1.4122   1.4143   2.0192   2.0204   2.0205   2.0230
     2.0230   2.0272   2.0782   2.0810   2.0828   2.6331   2.6359   2.6367
     2.7292   2.7328   2.7335   2.7364   2.7374   2.7401   2.7861   2.7873
     2.7912   3.0952   3.0981   3.0987   3.1007   3.1049   3.1071   3.3607
     3.3642   3.3656   3.3752   3.3784   3.3805   3.7269   3.7275   3.7347
     3.7500   3.7545   3.7547   3.8283   3.8312   3.8342   4.1043   4.1062
     4.1068   4.1094   4.1150   4.1178   4.1420   4.1453   4.1487   4.4109
     4.4576   4.4629   4.4642   4.7025   4.7050   4.7083   4.7723   4.7775
     4.7815   4.9254   4.9306   5.2302   5.2334   5.2379   5.7119   5.7175
     6.9251   6.9283   6.9321   7.3676   7.3679   7.3737   7.5951   7.8522
     7.8536   7.8580   7.9834   7.9883   7.9906   8.1415   8.1445   8.1467
     8.1602   8.1655   8.1674   8.3930   8.3936   8.3970   8.3988   8.4043
     8.4045   8.4421

          k =-0.2500 0.2500-0.2500 ( 52563 PWs)   bands (ev):

    -5.6275  -5.1031  -5.1000  -5.0950  -4.6038  -4.6009  -4.5960  -4.1671
    -4.0710  -4.0682  -4.0628  -3.6602  -3.6539  -3.6530  -3.6506  -3.6496
    -3.6411  -3.4640  -3.4594  -3.4546  -2.9669  -2.9649  -2.9585  -2.5994
    -2.5943  -2.5894  -2.4345  -2.4283  -2.4277  -2.4252  -2.4238  -2.4163
    -0.8932  -0.8873  -0.8848  -0.8834  -0.8812  -0.8756  -0.7918  -0.7865
    -0.7807  -0.6737  -0.6682  -0.6622  -0.5878  -0.5819  -0.5765   0.1201
     0.1950   0.2006   0.2043   0.2051   0.2085   0.2141   1.0739   1.0787
     1.0846   1.4078   1.4117   1.4163   2.0177   2.0202   2.0208   2.0229
     2.0242   2.0281   2.0794   2.0814   2.0845   2.6303   2.6333   2.6361
     2.7303   2.7325   2.7354   2.7370   2.7409   2.7417   2.7865   2.7895
     2.7951   3.0951   3.0974   3.0997   3.1003   3.1026   3.1084   3.3628
     3.3647   3.3662   3.3753   3.3798   3.3833   3.7236   3.7283   3.7307
     3.7453   3.7497   3.7551   3.8296   3.8320   3.8356   4.0986   4.1050
     4.1060   4.1074   4.1099   4.1158   4.1436   4.1460   4.1506   4.4068
     4.4616   4.4640   4.4660   4.7041   4.7070   4.7108   4.7677   4.7718
     4.7772   4.9249   4.9336   5.2324   5.2362   5.2413   5.7122   5.7221
     6.9270   6.9301   6.9337   7.3654   7.3718   7.3743   7.5967   7.8514
     7.8575   7.8599   7.9814   7.9862   7.9906   8.1406   8.1455   8.1480
     8.1631   8.1650   8.1673   8.3894   8.3932   8.3959   8.3970   8.4005
     8.4043   8.4443

          k = 0.2500-0.2500-0.2500 ( 52563 PWs)   bands (ev):

    -5.6274  -5.1027  -5.0998  -5.0960  -4.6031  -4.6007  -4.5969  -4.1661
    -4.0706  -4.0675  -4.0629  -3.6624  -3.6548  -3.6513  -3.6493  -3.6478
    -3.6456  -3.4642  -3.4594  -3.4565  -2.9647  -2.9631  -2.9568  -2.5986
    -2.5945  -2.5911  -2.4363  -2.4293  -2.4259  -2.4249  -2.4214  -2.4198
    -0.8906  -0.8898  -0.8839  -0.8816  -0.8784  -0.8782  -0.7890  -0.7855
    -0.7819  -0.6689  -0.6680  -0.6619  -0.5906  -0.5876  -0.5809   0.1164
     0.1997   0.2009   0.2041   0.2085   0.2106   0.2126   1.0704   1.0779
     1.0816   1.4088   1.4119   1.4152   2.0167   2.0197   2.0227   2.0234
     2.0249   2.0275   2.0816   2.0821   2.0849   2.6297   2.6308   2.6334
     2.7334   2.7337   2.7366   2.7376   2.7410   2.7432   2.7885   2.7934
     2.7961   3.0950   3.0982   3.0996   3.1011   3.1019   3.1069   3.3642
     3.3651   3.3686   3.3783   3.3802   3.3832   3.7242   3.7246   3.7287
     3.7445   3.7455   3.7499   3.8310   3.8347   3.8349   4.0974   4.1000
     4.1054   4.1065   4.1073   4.1095   4.1454   4.1494   4.1495   4.4027
     4.4638   4.4649   4.4701   4.7064   4.7106   4.7110   4.7623   4.7682
     4.7716   4.9281   4.9330   5.2355   5.2411   5.2416   5.7167   5.7224
     6.9285   6.9324   6.9349   7.3667   7.3705   7.3767   7.5982   7.8538
     7.8575   7.8625   7.9815   7.9840   7.9883   8.1425   8.1432   8.1497
     8.1625   8.1642   8.1712   8.3897   8.3904   8.3938   8.3967   8.3992
     8.3999   8.4465

     the Fermi energy is     6.3203 ev

!    total energy              =    -730.88001230 Ry
     Harris-Foulkes estimate   =    -730.88001230 Ry
     estimated scf accuracy    <          4.9E-09 Ry

     The total energy is the sum of the following terms:

     one-electron contribution =     160.47206343 Ry
     hartree contribution      =      35.78775729 Ry
     xc contribution           =    -393.13400386 Ry
     ewald contribution        =    -534.00582915 Ry
     smearing contrib. (-TS)   =      -0.00000000 Ry

     convergence has been achieved in  12 iterations

     Forces acting on atoms (cartesian axes, Ry/au):

     atom    1 type  1   force =    -0.01627416   -0.00010859   -0.00022172
     atom    2 type  1   force =     0.00024948    0.00010916   -0.00023136
     atom    3 type  1   force =     0.00013213   -0.00000888   -0.00004428
     atom    4 type  1   force =    -0.00008367    0.00001110   -0.00004413
     atom    5 type  1   force =     0.00028395   -0.00011282   -0.00023850
     atom    6 type  1   force =    -0.00023523    0.00011559   -0.00023679
     atom    7 type  1   force =    -0.00055112   -0.00001034   -0.00004428
     atom    8 type  1   force =     0.00010140    0.00000852   -0.00004333
     atom    9 type  1   force =    -0.00064519    0.00022900    0.00064617
     atom   10 type  1   force =    -0.00010752   -0.00010069    0.00053673
     atom   11 type  1   force =    -0.00041587    0.00022488    0.00041367
     atom   12 type  1   force =     0.00011686   -0.00010617    0.00052061
     atom   13 type  1   force =    -0.00053458   -0.00010110    0.00010788
     atom   14 type  1   force =    -0.00000800   -0.00001804    0.00000471
     atom   15 type  1   force =    -0.00051929   -0.00010603   -0.00011568
     atom   16 type  1   force =     0.00001048   -0.00001871   -0.00001081
     atom   17 type  1   force =     0.00022231   -0.00010710    0.01627277
     atom   18 type  1   force =     0.00023934   -0.00011441   -0.00028512
     atom   19 type  1   force =     0.00004347   -0.00000938   -0.00013069
     atom   20 type  1   force =     0.00004333   -0.00000956    0.00055289
     atom   21 type  1   force =     0.00023077    0.00010966   -0.00024828
     atom   22 type  1   force =     0.00023662    0.00011535    0.00023637
     atom   23 type  1   force =     0.00004466    0.00001001    0.00008226
     atom   24 type  1   force =     0.00004380    0.00001030   -0.00010252
     atom   25 type  1   force =     0.00034006    0.00044922   -0.00034111
     atom   26 type  1   force =     0.00024763   -0.00030669   -0.00015767
     atom   27 type  1   force =     0.00011816   -0.00044874   -0.00011945
     atom   28 type  1   force =     0.00022868    0.00030738    0.00007189
     atom   29 type  1   force =     0.00015845   -0.00030400   -0.00024641
     atom   30 type  1   force =     0.00005336    0.00015144   -0.00005495
     atom   31 type  1   force =    -0.00007064    0.00030496   -0.00022741
     atom   32 type  1   force =     0.00003341   -0.00015213   -0.00003484
     atom   33 type  1   force =    -0.00006898    0.00006904    0.00009185
     atom   34 type  1   force =     0.00023054    0.00005467   -0.00023027
     atom   35 type  1   force =    -0.00270900    0.00276075   -0.00393411
     atom   36 type  1   force =    -0.00009721    0.00009967    0.00009517
     atom   37 type  1   force =    -0.00000058    0.00005137   -0.00000145
     atom   38 type  1   force =    -0.00008943    0.00006889    0.00006873
     atom   39 type  1   force =    -0.00004752    0.00007287    0.00004692
     atom   40 type  1   force =     0.00393414    0.00276129    0.00271146
     atom   41 type  1   force =     0.00249984    0.00247299   -0.00387577
     atom   42 type  1   force =     0.00399479   -0.00268774   -0.00267944
     atom   43 type  1   force =     0.00007779    0.00001163    0.00002862
     atom   44 type  1   force =    -0.00003130   -0.00000866   -0.00030486
     atom   45 type  1   force =     0.00006415    0.00001137   -0.00001494
     atom   46 type  1   force =    -0.00003170   -0.00001933   -0.00006784
     atom   47 type  1   force =     0.00000974   -0.00000544   -0.00005926
     atom   48 type  1   force =     0.00028785    0.00000135   -0.00000811
     atom   49 type  1   force =    -0.00010757   -0.00007306    0.00010803
     atom   50 type  1   force =     0.00000192   -0.00005412   -0.00022437
     atom   51 type  1   force =     0.00132873   -0.00502742   -0.00133056
     atom   52 type  1   force =    -0.00004506   -0.00008777    0.00009306
     atom   53 type  1   force =     0.00022678   -0.00005440   -0.00000247
     atom   54 type  1   force =    -0.00005203   -0.00006015    0.00004923
     atom   55 type  1   force =    -0.00009303   -0.00008800    0.00004748
     atom   56 type  1   force =     0.00000156   -0.00005968   -0.00000236
     atom   57 type  1   force =     0.00267890   -0.00268549   -0.00399517
     atom   58 type  1   force =     0.00006744   -0.00001841    0.00003285
     atom   59 type  1   force =     0.00030543   -0.00001169    0.00003175
     atom   60 type  1   force =     0.00000845    0.00000180   -0.00028817
     atom   61 type  1   force =     0.00387638    0.00247365   -0.00250096
     atom   62 type  1   force =     0.00001573    0.00000849   -0.00006354
     atom   63 type  1   force =    -0.00002873    0.00001242   -0.00007767
     atom   64 type  1   force =     0.00005888   -0.00000410   -0.00001046

     Total force =     0.027223     Total SCF correction =     0.000128

     Writing output data file pwscf.save/
 
     init_run     :     21.26s CPU     24.98s WALL (       1 calls)
     electrons    :    639.97s CPU   1035.67s WALL (       1 calls)
     forces       :     10.75s CPU     17.73s WALL (       1 calls)

     Called by init_run:
     wfcinit      :     20.41s CPU     23.90s WALL (       1 calls)
     potinit      :      0.20s CPU      0.23s WALL (       1 calls)
     hinit0       :      0.21s CPU      0.23s WALL (       1 calls)

     Called by electrons:
     c_bands      :    546.69s CPU    878.91s WALL (      13 calls)
     sum_band     :     85.75s CPU    141.74s WALL (      13 calls)
     v_of_rho     :      2.03s CPU      3.31s WALL (      13 calls)
     newd         :      5.18s CPU     10.93s WALL (      13 calls)
     mix_rho      :      0.65s CPU      1.08s WALL (      13 calls)

     Called by c_bands:
     init_us_2    :      6.50s CPU     10.10s WALL (     112 calls)
     cegterg      :    501.22s CPU    808.14s WALL (      52 calls)

     Called by sum_band:
     sum_band:bec :      0.07s CPU      0.09s WALL (      52 calls)
     addusdens    :      4.52s CPU     10.08s WALL (      13 calls)

     Called by *egterg:
     h_psi        :    369.04s CPU    592.87s WALL (     213 calls)
     s_psi        :     60.66s CPU     92.50s WALL (     213 calls)
     g_psi        :      0.47s CPU      0.64s WALL (     157 calls)
     cdiaghg      :     10.00s CPU     15.86s WALL (     205 calls)

     Called by h_psi:
     h_psi:pot    :    368.11s CPU    590.00s WALL (     213 calls)
     h_psi:calbec :     72.22s CPU    112.01s WALL (     213 calls)
     vloc_psi     :    234.72s CPU    381.41s WALL (     213 calls)
     add_vuspsi   :     61.17s CPU     96.58s WALL (     213 calls)

     General routines
     calbec       :    105.42s CPU    165.48s WALL (     281 calls)
     fft          :      1.98s CPU      3.34s WALL (     156 calls)
     ffts         :      0.14s CPU      0.21s WALL (      13 calls)
     fftw         :    245.72s CPU    421.66s WALL (   50890 calls)
 
     Parallel routines
     fft_scatt_xy :     34.12s CPU     38.56s WALL (   51059 calls)
     fft_scatt_yz :    123.53s CPU    286.04s WALL (   51059 calls)
 
     PWSCF        : 11m12.89s CPU    18m 0.20s WALL

 
   This run was terminated on:  10:55:27  14Feb2020            

=------------------------------------------------------------------------------=
   JOB DONE.
=------------------------------------------------------------------------------=
