
     Program PWSCF v.6.3MaX starts on 13Feb2020 at 22:42:13 

     This program is part of the open-source Quantum ESPRESSO suite
     for quantum simulation of materials; please cite
         "P. Giannozzi et al., J. Phys.:Condens. Matter 21 395502 (2009);
         "P. Giannozzi et al., J. Phys.:Condens. Matter 29 465901 (2017);
          URL http://www.quantum-espresso.org", 
     in publications or presentations arising from this work. More details at
     http://www.quantum-espresso.org/quote

     Parallel version (MPI), running on     1 processors

     MPI processes distributed on     1 nodes
     Waiting for input...
     Reading input from standard input

     Current dimensions of program PWSCF are:
     Max number of different atomic species (ntypx) = 10
     Max number of k-points (npk) =  40000
     Max angular momentum in pseudopotentials (lmaxx) =  3

     Subspace diagonalization in iterative solution of the eigenvalue problem:
     a serial algorithm will be used

 
     G-vector sticks info
     --------------------
     sticks:   dense  smooth     PW     G-vecs:    dense   smooth      PW
     Sum        6785    6785   1757               421349   421349   55515
 


     bravais-lattice index     =            0
     lattice parameter (alat)  =      20.6591  a.u.
     unit-cell volume          =    8817.2783 (a.u.)^3
     number of atoms/cell      =           64
     number of atomic types    =            1
     number of electrons       =       256.00
     number of Kohn-Sham states=          154
     kinetic-energy cutoff     =      50.0000  Ry
     charge density cutoff     =     200.0000  Ry
     convergence threshold     =      1.0E-08
     mixing beta               =       0.7000
     number of iterations used =            8  plain     mixing
     Exchange-correlation      = PBE ( 1  4  3  4 0 0)

     celldm(1)=  20.659106  celldm(2)=   0.000000  celldm(3)=   0.000000
     celldm(4)=   0.000000  celldm(5)=   0.000000  celldm(6)=   0.000000

     crystal axes: (cart. coord. in units of alat)
               a(1) = (   1.000000   0.000000   0.000000 )  
               a(2) = (   0.000000   1.000000   0.000000 )  
               a(3) = (   0.000000   0.000000   1.000000 )  

     reciprocal axes: (cart. coord. in units 2 pi/alat)
               b(1) = (  1.000000  0.000000  0.000000 )  
               b(2) = (  0.000000  1.000000  0.000000 )  
               b(3) = (  0.000000  0.000000  1.000000 )  


     PseudoPot. # 1 for Si read from file:
     ~/kedar/softwares/SSSP_precision_pseudos/Si.pbe-n-rrkjus_psl.1.0.0.UPF
     MD5 check sum: Not computed, couldn't open file
     Pseudo is Ultrasoft + core correction, Zval =  4.0
     Generated using "atomic" code by A. Dal Corso v.5.1
     Using radial grid of 1141 points,  6 beta functions with: 
                l(1) =   0
                l(2) =   0
                l(3) =   1
                l(4) =   1
                l(5) =   2
                l(6) =   2
     Q(r) pseudized with 0 coefficients 


     atomic species   valence    mass     pseudopotential
        Si             4.00    28.08550     Si( 1.00)

     No symmetry found



   Cartesian axes

     site n.     atom                  positions (alat units)
         1           Si  tau(   1) = (   0.4404043   0.4375000   0.4375000  )
         2           Si  tau(   2) = (   0.9375000   0.4375000   0.4375000  )
         3           Si  tau(   3) = (   0.4375000   0.9375000   0.4375000  )
         4           Si  tau(   4) = (   0.9375000   0.9375000   0.4375000  )
         5           Si  tau(   5) = (   0.4375000   0.4375000   0.9375000  )
         6           Si  tau(   6) = (   0.9375000   0.4375000   0.9375000  )
         7           Si  tau(   7) = (   0.4375000   0.9375000   0.9375000  )
         8           Si  tau(   8) = (   0.9375000   0.9375000   0.9375000  )
         9           Si  tau(   9) = (   0.4375000   0.1875000   0.1875000  )
        10           Si  tau(  10) = (   0.9375000   0.1875000   0.1875000  )
        11           Si  tau(  11) = (   0.4375000   0.6904043   0.1875000  )
        12           Si  tau(  12) = (   0.9375000   0.6875000   0.1875000  )
        13           Si  tau(  13) = (   0.4375000   0.1875000   0.6875000  )
        14           Si  tau(  14) = (   0.9375000   0.1875000   0.6875000  )
        15           Si  tau(  15) = (   0.4375000   0.6875000   0.6875000  )
        16           Si  tau(  16) = (   0.9375000   0.6875000   0.6875000  )
        17           Si  tau(  17) = (   0.1875000   0.4375000   0.1875000  )
        18           Si  tau(  18) = (   0.6875000   0.4375000   0.1875000  )
        19           Si  tau(  19) = (   0.1875000   0.9375000   0.1875000  )
        20           Si  tau(  20) = (   0.6875000   0.9375000   0.1875000  )
        21           Si  tau(  21) = (   0.1875000   0.4375000   0.6875000  )
        22           Si  tau(  22) = (   0.6875000   0.4375000   0.6875000  )
        23           Si  tau(  23) = (   0.1875000   0.9375000   0.6875000  )
        24           Si  tau(  24) = (   0.6875000   0.9375000   0.6875000  )
        25           Si  tau(  25) = (   0.1875000   0.1875000   0.4375000  )
        26           Si  tau(  26) = (   0.6875000   0.1875000   0.4375000  )
        27           Si  tau(  27) = (   0.1875000   0.6875000   0.4375000  )
        28           Si  tau(  28) = (   0.6875000   0.6875000   0.4375000  )
        29           Si  tau(  29) = (   0.1875000   0.1875000   0.9375000  )
        30           Si  tau(  30) = (   0.6875000   0.1875000   0.9375000  )
        31           Si  tau(  31) = (   0.1875000   0.6875000   0.9375000  )
        32           Si  tau(  32) = (   0.6875000   0.6875000   0.9375000  )
        33           Si  tau(  33) = (   0.0625000   0.0625000   0.0625000  )
        34           Si  tau(  34) = (   0.5625000   0.0625000   0.0625000  )
        35           Si  tau(  35) = (   0.0625000   0.5625000   0.0625000  )
        36           Si  tau(  36) = (   0.5625000   0.5625000   0.0625000  )
        37           Si  tau(  37) = (   0.0625000   0.0625000   0.5625000  )
        38           Si  tau(  38) = (   0.5625000   0.0625000   0.5625000  )
        39           Si  tau(  39) = (   0.0625000   0.5625000   0.5625000  )
        40           Si  tau(  40) = (   0.5625000   0.5625000   0.5625000  )
        41           Si  tau(  41) = (   0.0625000   0.3125000   0.3125000  )
        42           Si  tau(  42) = (   0.5625000   0.3125000   0.3125000  )
        43           Si  tau(  43) = (   0.0625000   0.8125000   0.3125000  )
        44           Si  tau(  44) = (   0.5625000   0.8125000   0.3125000  )
        45           Si  tau(  45) = (   0.0625000   0.3125000   0.8125000  )
        46           Si  tau(  46) = (   0.5625000   0.3125000   0.8125000  )
        47           Si  tau(  47) = (   0.0625000   0.8125000   0.8125000  )
        48           Si  tau(  48) = (   0.5625000   0.8125000   0.8125000  )
        49           Si  tau(  49) = (   0.3125000   0.0625000   0.3125000  )
        50           Si  tau(  50) = (   0.8125000   0.0625000   0.3125000  )
        51           Si  tau(  51) = (   0.3125000   0.5625000   0.3125000  )
        52           Si  tau(  52) = (   0.8125000   0.5625000   0.3125000  )
        53           Si  tau(  53) = (   0.3125000   0.0625000   0.8125000  )
        54           Si  tau(  54) = (   0.8125000   0.0625000   0.8125000  )
        55           Si  tau(  55) = (   0.3125000   0.5625000   0.8125000  )
        56           Si  tau(  56) = (   0.8125000   0.5625000   0.8125000  )
        57           Si  tau(  57) = (   0.3125000   0.3125000   0.0625000  )
        58           Si  tau(  58) = (   0.8125000   0.3125000   0.0625000  )
        59           Si  tau(  59) = (   0.3125000   0.8125000   0.0625000  )
        60           Si  tau(  60) = (   0.8125000   0.8125000   0.0625000  )
        61           Si  tau(  61) = (   0.3125000   0.3125000   0.5625000  )
        62           Si  tau(  62) = (   0.8125000   0.3125000   0.5625000  )
        63           Si  tau(  63) = (   0.3125000   0.8125000   0.5625000  )
        64           Si  tau(  64) = (   0.8125000   0.8125000   0.5625000  )

     number of k points=     4  gaussian smearing, width (Ry)=  0.0100
                       cart. coord. in units 2pi/alat
        k(    1) = (   0.2500000   0.2500000   0.2500000), wk =   0.5000000
        k(    2) = (  -0.2500000  -0.2500000   0.2500000), wk =   0.5000000
        k(    3) = (  -0.2500000   0.2500000  -0.2500000), wk =   0.5000000
        k(    4) = (   0.2500000  -0.2500000  -0.2500000), wk =   0.5000000

     Dense  grid:   421349 G-vectors     FFT dimensions: (  96,  96,  96)

     Estimated max dynamical RAM per process >       4.11 GB

     Check: negative/imaginary core charge=   -0.000001    0.000000

     Initial potential from superposition of free atoms

     starting charge  255.96421, renormalised to  256.00000
     Starting wfcs are  256 randomized atomic wfcs

     total cpu time spent up to now is      254.6 secs

     Self-consistent Calculation

     iteration #  1     ecut=    50.00 Ry     beta= 0.70
     Davidson diagonalization with overlap
     ethr =  1.00E-02,  avg # of iterations =  3.0

     Threshold (ethr) on eigenvalues was too large:
     Diagonalizing with lowered threshold

     Davidson diagonalization with overlap
     ethr =  6.78E-04,  avg # of iterations =  2.0

     total cpu time spent up to now is     1183.3 secs

     total energy              =    -730.80259148 Ry
     Harris-Foulkes estimate   =    -731.20856712 Ry
     estimated scf accuracy    <       1.72000605 Ry

     iteration #  2     ecut=    50.00 Ry     beta= 0.70
     Davidson diagonalization with overlap
     ethr =  6.72E-04,  avg # of iterations =  1.0

     total cpu time spent up to now is     1554.2 secs

     total energy              =    -730.86479922 Ry
     Harris-Foulkes estimate   =    -730.87078236 Ry
     estimated scf accuracy    <       0.08016272 Ry

     iteration #  3     ecut=    50.00 Ry     beta= 0.70
     Davidson diagonalization with overlap
     ethr =  3.13E-05,  avg # of iterations = 10.8

     total cpu time spent up to now is     2106.2 secs

     total energy              =    -730.87938515 Ry
     Harris-Foulkes estimate   =    -730.88060931 Ry
     estimated scf accuracy    <       0.00273774 Ry

     iteration #  4     ecut=    50.00 Ry     beta= 0.70
     Davidson diagonalization with overlap
     ethr =  1.07E-06,  avg # of iterations =  4.0

     total cpu time spent up to now is     2502.8 secs

     total energy              =    -730.87981463 Ry
     Harris-Foulkes estimate   =    -730.88045936 Ry
     estimated scf accuracy    <       0.00179942 Ry

     iteration #  5     ecut=    50.00 Ry     beta= 0.70
     Davidson diagonalization with overlap
     ethr =  7.03E-07,  avg # of iterations =  2.0

     total cpu time spent up to now is     2777.1 secs

     total energy              =    -730.88000587 Ry
     Harris-Foulkes estimate   =    -730.88009387 Ry
     estimated scf accuracy    <       0.00023813 Ry

     iteration #  6     ecut=    50.00 Ry     beta= 0.70
     Davidson diagonalization with overlap
     ethr =  9.30E-08,  avg # of iterations =  3.0

     total cpu time spent up to now is     3061.1 secs

     total energy              =    -730.88002174 Ry
     Harris-Foulkes estimate   =    -730.88004608 Ry
     estimated scf accuracy    <       0.00006340 Ry

     iteration #  7     ecut=    50.00 Ry     beta= 0.70
     Davidson diagonalization with overlap
     ethr =  2.48E-08,  avg # of iterations =  2.0

     total cpu time spent up to now is     3281.3 secs

     total energy              =    -730.88003148 Ry
     Harris-Foulkes estimate   =    -730.88003184 Ry
     estimated scf accuracy    <       0.00000249 Ry

     iteration #  8     ecut=    50.00 Ry     beta= 0.70
     Davidson diagonalization with overlap
     ethr =  9.73E-10,  avg # of iterations =  3.0

     total cpu time spent up to now is     3534.8 secs

     total energy              =    -730.88003214 Ry
     Harris-Foulkes estimate   =    -730.88003253 Ry
     estimated scf accuracy    <       0.00000186 Ry

     iteration #  9     ecut=    50.00 Ry     beta= 0.70
     Davidson diagonalization with overlap
     ethr =  7.25E-10,  avg # of iterations =  2.0

     total cpu time spent up to now is     3708.8 secs

     total energy              =    -730.88003205 Ry
     Harris-Foulkes estimate   =    -730.88003230 Ry
     estimated scf accuracy    <       0.00000087 Ry

     iteration # 10     ecut=    50.00 Ry     beta= 0.70
     Davidson diagonalization with overlap
     ethr =  3.40E-10,  avg # of iterations =  1.2

     total cpu time spent up to now is     3826.1 secs

     total energy              =    -730.88003204 Ry
     Harris-Foulkes estimate   =    -730.88003210 Ry
     estimated scf accuracy    <       0.00000018 Ry

     iteration # 11     ecut=    50.00 Ry     beta= 0.70
     Davidson diagonalization with overlap
     ethr =  6.92E-11,  avg # of iterations =  3.0

     total cpu time spent up to now is     3970.5 secs

     total energy              =    -730.88003206 Ry
     Harris-Foulkes estimate   =    -730.88003206 Ry
     estimated scf accuracy    <       0.00000002 Ry

     iteration # 12     ecut=    50.00 Ry     beta= 0.70
     Davidson diagonalization with overlap
     ethr =  6.61E-12,  avg # of iterations =  3.0

     total cpu time spent up to now is     4116.9 secs

     End of self-consistent calculation

          k = 0.2500 0.2500 0.2500 ( 52563 PWs)   bands (ev):

    -5.6274  -5.1038  -5.0978  -5.0967  -4.6047  -4.5985  -4.5975  -4.1661
    -4.0715  -4.0654  -4.0639  -3.6610  -3.6565  -3.6514  -3.6487  -3.6481
    -3.6457  -3.4646  -3.4588  -3.4566  -2.9669  -2.9604  -2.9574  -2.6006
    -2.5927  -2.5908  -2.4337  -2.4316  -2.4262  -2.4239  -2.4226  -2.4196
    -0.8916  -0.8890  -0.8840  -0.8808  -0.8803  -0.8768  -0.7915  -0.7836
    -0.7814  -0.6699  -0.6673  -0.6614  -0.5913  -0.5868  -0.5812   0.1164
     0.1964   0.2017   0.2044   0.2079   0.2123   0.2138   1.0722   1.0764
     1.0813   1.4088   1.4125   1.4147   2.0181   2.0207   2.0223   2.0233
     2.0240   2.0270   2.0799   2.0835   2.0848   2.6285   2.6321   2.6333
     2.7327   2.7340   2.7362   2.7376   2.7408   2.7447   2.7903   2.7916
     2.7956   3.0945   3.0965   3.0999   3.1022   3.1035   3.1061   3.3641
     3.3661   3.3672   3.3771   3.3812   3.3838   3.7214   3.7266   3.7290
     3.7421   3.7481   3.7500   3.8309   3.8327   3.8372   4.0971   4.1009
     4.1038   4.1070   4.1078   4.1100   4.1450   4.1469   4.1519   4.4024
     4.4641   4.4670   4.4679   4.7061   4.7080   4.7138   4.7633   4.7674
     4.7714   4.9280   4.9330   5.2353   5.2378   5.2450   5.7166   5.7225
     6.9287   6.9327   6.9346   7.3669   7.3714   7.3756   7.5982   7.8541
     7.8588   7.8609   7.9813   7.9832   7.9893   8.1428   8.1453   8.1479
     8.1627   8.1664   8.1682   8.3877   8.3915   8.3937   8.3964   8.3985
     8.4021   8.4464

          k =-0.2500-0.2500 0.2500 ( 52563 PWs)   bands (ev):

    -5.6275  -5.1019  -5.1008  -5.0949  -4.6028  -4.6018  -4.5962  -4.1682
    -4.0703  -4.0691  -4.0638  -3.6565  -3.6547  -3.6527  -3.6518  -3.6516
    -3.6382  -3.4622  -3.4600  -3.4537  -2.9679  -2.9662  -2.9619  -2.5976
    -2.5960  -2.5885  -2.4311  -2.4294  -2.4277  -2.4265  -2.4253  -2.4140
    -0.8910  -0.8881  -0.8866  -0.8845  -0.8816  -0.8767  -0.7914  -0.7890
    -0.7813  -0.6744  -0.6689  -0.6660  -0.5835  -0.5810  -0.5687   0.1240
     0.1955   0.1984   0.2018   0.2040   0.2062   0.2124   1.0766   1.0805
     1.0875   1.4088   1.4132   1.4136   2.0185   2.0189   2.0211   2.0236
     2.0253   2.0263   2.0778   2.0808   2.0830   2.6331   2.6345   2.6381
     2.7297   2.7308   2.7336   2.7364   2.7393   2.7404   2.7856   2.7868
     2.7915   3.0959   3.0979   3.0994   3.1005   3.1029   3.1081   3.3616
     3.3626   3.3656   3.3759   3.3793   3.3797   3.7269   3.7281   3.7333
     3.7497   3.7523   3.7575   3.8294   3.8306   3.8340   4.1049   4.1056
     4.1067   4.1096   4.1139   4.1185   4.1431   4.1446   4.1488   4.4109
     4.4598   4.4608   4.4640   4.7031   4.7047   4.7081   4.7722   4.7749
     4.7841   4.9255   4.9307   5.2307   5.2333   5.2374   5.7119   5.7175
     6.9258   6.9279   6.9320   7.3656   7.3705   7.3731   7.5952   7.8510
     7.8552   7.8576   7.9828   7.9890   7.9907   8.1411   8.1444   8.1470
     8.1621   8.1640   8.1672   8.3929   8.3948   8.3962   8.3976   8.4039
     8.4063   8.4417

          k =-0.2500 0.2500-0.2500 ( 52563 PWs)   bands (ev):

    -5.6275  -5.1034  -5.0988  -5.0957  -4.6043  -4.5998  -4.5967  -4.1672
    -4.0713  -4.0666  -4.0640  -3.6598  -3.6536  -3.6527  -3.6507  -3.6492
    -3.6426  -3.4635  -3.4594  -3.4550  -2.9670  -2.9629  -2.9604  -2.5982
    -2.5941  -2.5908  -2.4340  -2.4293  -2.4273  -2.4255  -2.4235  -2.4162
    -0.8935  -0.8878  -0.8851  -0.8835  -0.8811  -0.8745  -0.7897  -0.7864
    -0.7829  -0.6736  -0.6681  -0.6625  -0.5873  -0.5831  -0.5758   0.1201
     0.1957   0.2006   0.2040   0.2052   0.2078   0.2143   1.0750   1.0787
     1.0834   1.4081   1.4120   1.4158   2.0172   2.0204   2.0218   2.0223
     2.0258   2.0271   2.0787   2.0812   2.0850   2.6309   2.6334   2.6355
     2.7303   2.7330   2.7360   2.7368   2.7396   2.7423   2.7856   2.7911
     2.7941   3.0930   3.0993   3.1003   3.1014   3.1027   3.1071   3.3621
     3.3645   3.3674   3.3754   3.3797   3.3831   3.7237   3.7276   3.7315
     3.7461   3.7496   3.7543   3.8291   3.8321   3.8361   4.0996   4.1046
     4.1066   4.1076   4.1089   4.1154   4.1427   4.1460   4.1515   4.4065
     4.4605   4.4638   4.4677   4.7035   4.7070   4.7113   4.7686   4.7715
     4.7764   4.9249   4.9337   5.2316   5.2361   5.2422   5.7122   5.7221
     6.9270   6.9296   6.9341   7.3659   7.3694   7.3763   7.5967   7.8523
     7.8551   7.8615   7.9821   7.9861   7.9900   8.1415   8.1445   8.1477
     8.1625   8.1639   8.1694   8.3892   8.3941   8.3964   8.3968   8.4002
     8.4042   8.4442

          k = 0.2500-0.2500-0.2500 ( 52563 PWs)   bands (ev):

    -5.6275  -5.1029  -5.0997  -5.0954  -4.6039  -4.6006  -4.5962  -4.1671
    -4.0710  -4.0678  -4.0633  -3.6600  -3.6536  -3.6533  -3.6513  -3.6485
    -3.6417  -3.4635  -3.4594  -3.4550  -2.9678  -2.9644  -2.9582  -2.5980
    -2.5943  -2.5907  -2.4336  -2.4286  -2.4278  -2.4260  -2.4235  -2.4164
    -0.8913  -0.8873  -0.8856  -0.8840  -0.8811  -0.8761  -0.7900  -0.7866
    -0.7829  -0.6734  -0.6681  -0.6626  -0.5892  -0.5825  -0.5743   0.1201
     0.1970   0.2005   0.2021   0.2054   0.2086   0.2139   1.0734   1.0786
     1.0853   1.4076   1.4117   1.4165   2.0178   2.0199   2.0223   2.0229
     2.0246   2.0270   2.0788   2.0811   2.0851   2.6310   2.6331   2.6356
     2.7316   2.7321   2.7346   2.7366   2.7404   2.7424   2.7871   2.7900
     2.7939   3.0940   3.0983   3.0993   3.1007   3.1036   3.1077   3.3618
     3.3654   3.3668   3.3750   3.3798   3.3835   3.7235   3.7280   3.7309
     3.7465   3.7504   3.7533   3.8296   3.8318   3.8360   4.0997   4.1044
     4.1063   4.1074   4.1100   4.1150   4.1433   4.1460   4.1508   4.4069
     4.4604   4.4644   4.4670   4.7040   4.7066   4.7111   4.7663   4.7717
     4.7788   4.9249   4.9337   5.2322   5.2358   5.2418   5.7122   5.7221
     6.9264   6.9308   6.9336   7.3678   7.3698   7.3740   7.5967   7.8530
     7.8563   7.8597   7.9819   7.9861   7.9900   8.1421   8.1454   8.1470
     8.1609   8.1660   8.1679   8.3907   8.3923   8.3948   8.3976   8.4003
     8.4049   8.4443

     the Fermi energy is     6.3203 ev

!    total energy              =    -730.88003206 Ry
     Harris-Foulkes estimate   =    -730.88003206 Ry
     estimated scf accuracy    <          3.2E-09 Ry

     The total energy is the sum of the following terms:

     one-electron contribution =     160.47282636 Ry
     hartree contribution      =      35.78736526 Ry
     xc contribution           =    -393.13399311 Ry
     ewald contribution        =    -534.00623057 Ry
     smearing contrib. (-TS)   =      -0.00000000 Ry

     convergence has been achieved in  12 iterations

     Forces acting on atoms (cartesian axes, Ry/au):

     atom    1 type  1   force =    -0.01594924    0.00022779   -0.00022711
     atom    2 type  1   force =     0.00003355    0.00004492    0.00007580
     atom    3 type  1   force =     0.00017083    0.00023639    0.00022877
     atom    4 type  1   force =     0.00000189    0.00004383   -0.00007645
     atom    5 type  1   force =    -0.00005591    0.00023061    0.00022452
     atom    6 type  1   force =    -0.00001470    0.00004291   -0.00007642
     atom    7 type  1   force =    -0.00059061    0.00023799   -0.00022998
     atom    8 type  1   force =     0.00001698    0.00004403    0.00007564
     atom    9 type  1   force =    -0.00053187    0.00013785    0.00011458
     atom   10 type  1   force =     0.00000277    0.00000376    0.00000840
     atom   11 type  1   force =    -0.00052640   -0.01594848   -0.00010992
     atom   12 type  1   force =     0.00000279    0.00006488   -0.00000863
     atom   13 type  1   force =    -0.00052552   -0.00011583    0.00011049
     atom   14 type  1   force =     0.00000219    0.00001638    0.00001024
     atom   15 type  1   force =    -0.00052965   -0.00005863   -0.00011539
     atom   16 type  1   force =     0.00000101   -0.00048578   -0.00000949
     atom   17 type  1   force =     0.00045229    0.00012054    0.00010953
     atom   18 type  1   force =     0.00001342    0.00011737   -0.00011954
     atom   19 type  1   force =    -0.00018466    0.00022768   -0.00019032
     atom   20 type  1   force =     0.00027376    0.00022775    0.00019234
     atom   21 type  1   force =     0.00015448    0.00015288   -0.00023242
     atom   22 type  1   force =     0.00031427    0.00015736    0.00023901
     atom   23 type  1   force =     0.00011966    0.00005420    0.00006769
     atom   24 type  1   force =    -0.00003228    0.00005334   -0.00006748
     atom   25 type  1   force =     0.00022206    0.00022714   -0.00010128
     atom   26 type  1   force =     0.00022769   -0.00022841   -0.00012295
     atom   27 type  1   force =     0.00012110   -0.00074952    0.00021750
     atom   28 type  1   force =     0.00012256   -0.00029975   -0.00000018
     atom   29 type  1   force =     0.00005273   -0.00007397    0.00000087
     atom   30 type  1   force =     0.00005325    0.00007851   -0.00001971
     atom   31 type  1   force =     0.00015889   -0.00045527    0.00012560
     atom   32 type  1   force =     0.00015354   -0.00060135   -0.00009972
     atom   33 type  1   force =    -0.00004576    0.00006056    0.00005948
     atom   34 type  1   force =     0.00022058    0.00001800    0.00006498
     atom   35 type  1   force =    -0.00000851   -0.00003156    0.00007598
     atom   36 type  1   force =    -0.00256970    0.00388771    0.00254993
     atom   37 type  1   force =    -0.00000365    0.00000537    0.00005800
     atom   38 type  1   force =    -0.00008732    0.00006619    0.00007525
     atom   39 type  1   force =    -0.00003854    0.00029177    0.00006427
     atom   40 type  1   force =     0.00390824    0.00268084    0.00277212
     atom   41 type  1   force =     0.00001571   -0.00000970   -0.00001144
     atom   42 type  1   force =     0.00399580   -0.00274598   -0.00269916
     atom   43 type  1   force =     0.00006455   -0.00008490    0.00002222
     atom   44 type  1   force =     0.00267736    0.00392182    0.00268704
     atom   45 type  1   force =     0.00005805   -0.00004631    0.00000719
     atom   46 type  1   force =    -0.00003198   -0.00002352   -0.00001275
     atom   47 type  1   force =     0.00000836    0.00022890   -0.00000192
     atom   48 type  1   force =     0.00030733   -0.00008648    0.00000915
     atom   49 type  1   force =    -0.00001951   -0.00004621    0.00001258
     atom   50 type  1   force =     0.00005478    0.00000125   -0.00000001
     atom   51 type  1   force =     0.00635266    0.00133398    0.00000422
     atom   52 type  1   force =     0.00002695   -0.00009408   -0.00001384
     atom   53 type  1   force =     0.00028433    0.00000121    0.00000144
     atom   54 type  1   force =     0.00001074   -0.00004932   -0.00000028
     atom   55 type  1   force =    -0.00000671   -0.00010908    0.00000087
     atom   56 type  1   force =     0.00005694    0.00022561   -0.00000181
     atom   57 type  1   force =    -0.00009556    0.00004052   -0.00007390
     atom   58 type  1   force =     0.00000522    0.00005573   -0.00005364
     atom   59 type  1   force =    -0.00248036    0.00398696   -0.00276088
     atom   60 type  1   force =    -0.00005805   -0.00002851   -0.00007894
     atom   61 type  1   force =     0.00381330    0.00253864   -0.00253600
     atom   62 type  1   force =    -0.00004143    0.00001692   -0.00006709
     atom   63 type  1   force =    -0.00010473   -0.00002237   -0.00008916
     atom   64 type  1   force =     0.00000002    0.00028491   -0.00005794

     Total force =     0.027061     Total SCF correction =     0.000102

     Writing output data file pwscf.save/
 
     init_run     :     73.34s CPU    253.49s WALL (       1 calls)
     electrons    :   1899.36s CPU   3862.30s WALL (       1 calls)
     forces       :     36.97s CPU     38.16s WALL (       1 calls)

     Called by init_run:
     wfcinit      :     70.41s CPU    241.86s WALL (       1 calls)
     potinit      :      0.43s CPU      1.52s WALL (       1 calls)
     hinit0       :      0.75s CPU      2.45s WALL (       1 calls)

     Called by electrons:
     c_bands      :   1636.53s CPU   3339.22s WALL (      13 calls)
     sum_band     :    237.62s CPU    467.01s WALL (      13 calls)
     v_of_rho     :      4.36s CPU      8.49s WALL (      13 calls)
     newd         :     21.40s CPU     53.62s WALL (      13 calls)
     mix_rho      :      1.31s CPU      2.21s WALL (      13 calls)

     Called by c_bands:
     init_us_2    :     21.17s CPU     42.69s WALL (     112 calls)
     cegterg      :   1453.53s CPU   2973.81s WALL (      52 calls)

     Called by sum_band:
     sum_band:bec :      0.08s CPU      0.14s WALL (      52 calls)
     addusdens    :     22.35s CPU     55.78s WALL (      13 calls)

     Called by *egterg:
     h_psi        :   1022.56s CPU   2138.85s WALL (     216 calls)
     s_psi        :    252.35s CPU    526.32s WALL (     216 calls)
     g_psi        :      2.16s CPU      4.39s WALL (     160 calls)
     cdiaghg      :     10.87s CPU     23.92s WALL (     208 calls)

     Called by h_psi:
     h_psi:pot    :   1018.27s CPU   2121.32s WALL (     216 calls)
     h_psi:calbec :    252.41s CPU    525.97s WALL (     216 calls)
     vloc_psi     :    513.34s CPU   1071.31s WALL (     216 calls)
     add_vuspsi   :    252.52s CPU    524.04s WALL (     216 calls)

     General routines
     calbec       :    371.30s CPU    727.93s WALL (     284 calls)
     fft          :      1.51s CPU      2.73s WALL (     156 calls)
     ffts         :      0.12s CPU      0.23s WALL (      13 calls)
     fftw         :    490.28s CPU   1011.03s WALL (   50672 calls)
 
     Parallel routines
 
     PWSCF        : 33m30.27s CPU       33h 1m WALL

       9h
 
   This run was terminated on:  23:51:29  13Feb2020            

=------------------------------------------------------------------------------=
   JOB DONE.
=------------------------------------------------------------------------------=
