
     Program PWSCF v.6.3MaX starts on 14Feb2020 at 16:32:15 

     This program is part of the open-source Quantum ESPRESSO suite
     for quantum simulation of materials; please cite
         "P. Giannozzi et al., J. Phys.:Condens. Matter 21 395502 (2009);
         "P. Giannozzi et al., J. Phys.:Condens. Matter 29 465901 (2017);
          URL http://www.quantum-espresso.org", 
     in publications or presentations arising from this work. More details at
     http://www.quantum-espresso.org/quote

     Parallel version (MPI), running on     2 processors

     MPI processes distributed on     1 nodes
     R & G space division:  proc/nbgrp/npool/nimage =       2
     Waiting for input...
     Reading input from standard input

     Current dimensions of program PWSCF are:
     Max number of different atomic species (ntypx) = 10
     Max number of k-points (npk) =  40000
     Max angular momentum in pseudopotentials (lmaxx) =  3

     Subspace diagonalization in iterative solution of the eigenvalue problem:
     a serial algorithm will be used

 
     Parallelization info
     --------------------
     sticks:   dense  smooth     PW     G-vecs:    dense   smooth      PW
     Min        3392    3392    878               210674   210674   27756
     Max        3393    3393    879               210675   210675   27759
     Sum        6785    6785   1757               421349   421349   55515
 


     bravais-lattice index     =            0
     lattice parameter (alat)  =      20.6591  a.u.
     unit-cell volume          =    8817.2783 (a.u.)^3
     number of atoms/cell      =           64
     number of atomic types    =            1
     number of electrons       =       256.00
     number of Kohn-Sham states=          154
     kinetic-energy cutoff     =      50.0000  Ry
     charge density cutoff     =     200.0000  Ry
     convergence threshold     =      1.0E-08
     mixing beta               =       0.7000
     number of iterations used =            8  plain     mixing
     Exchange-correlation      = PBE ( 1  4  3  4 0 0)

     celldm(1)=  20.659106  celldm(2)=   0.000000  celldm(3)=   0.000000
     celldm(4)=   0.000000  celldm(5)=   0.000000  celldm(6)=   0.000000

     crystal axes: (cart. coord. in units of alat)
               a(1) = (   1.000000   0.000000   0.000000 )  
               a(2) = (   0.000000   1.000000   0.000000 )  
               a(3) = (   0.000000   0.000000   1.000000 )  

     reciprocal axes: (cart. coord. in units 2 pi/alat)
               b(1) = (  1.000000  0.000000  0.000000 )  
               b(2) = (  0.000000  1.000000  0.000000 )  
               b(3) = (  0.000000  0.000000  1.000000 )  


     PseudoPot. # 1 for Si read from file:
     ~/kedar/softwares/SSSP_precision_pseudos/Si.pbe-n-rrkjus_psl.1.0.0.UPF
     MD5 check sum: Not computed, couldn't open file
     Pseudo is Ultrasoft + core correction, Zval =  4.0
     Generated using "atomic" code by A. Dal Corso v.5.1
     Using radial grid of 1141 points,  6 beta functions with: 
                l(1) =   0
                l(2) =   0
                l(3) =   1
                l(4) =   1
                l(5) =   2
                l(6) =   2
     Q(r) pseudized with 0 coefficients 


     atomic species   valence    mass     pseudopotential
        Si             4.00    28.08550     Si( 1.00)

     No symmetry found



   Cartesian axes

     site n.     atom                  positions (alat units)
         1           Si  tau(   1) = (   0.4404043   0.4375000   0.4375000  )
         2           Si  tau(   2) = (   0.9375000   0.4375000   0.4375000  )
         3           Si  tau(   3) = (   0.4375000   0.9375000   0.4375000  )
         4           Si  tau(   4) = (   0.9375000   0.9375000   0.4375000  )
         5           Si  tau(   5) = (   0.4375000   0.4375000   0.9375000  )
         6           Si  tau(   6) = (   0.9375000   0.4375000   0.9375000  )
         7           Si  tau(   7) = (   0.4375000   0.9375000   0.9375000  )
         8           Si  tau(   8) = (   0.9375000   0.9375000   0.9375000  )
         9           Si  tau(   9) = (   0.4375000   0.1875000   0.1875000  )
        10           Si  tau(  10) = (   0.9375000   0.1875000   0.1875000  )
        11           Si  tau(  11) = (   0.4375000   0.6875000   0.1875000  )
        12           Si  tau(  12) = (   0.9375000   0.6875000   0.1875000  )
        13           Si  tau(  13) = (   0.4375000   0.1875000   0.6875000  )
        14           Si  tau(  14) = (   0.9375000   0.1875000   0.6875000  )
        15           Si  tau(  15) = (   0.4375000   0.6875000   0.6875000  )
        16           Si  tau(  16) = (   0.9375000   0.6875000   0.6875000  )
        17           Si  tau(  17) = (   0.1875000   0.4375000   0.1875000  )
        18           Si  tau(  18) = (   0.6875000   0.4375000   0.1875000  )
        19           Si  tau(  19) = (   0.1875000   0.9375000   0.1875000  )
        20           Si  tau(  20) = (   0.6875000   0.9375000   0.1875000  )
        21           Si  tau(  21) = (   0.1875000   0.4375000   0.6875000  )
        22           Si  tau(  22) = (   0.6875000   0.4375000   0.6875000  )
        23           Si  tau(  23) = (   0.1875000   0.9375000   0.6875000  )
        24           Si  tau(  24) = (   0.6875000   0.9375000   0.6875000  )
        25           Si  tau(  25) = (   0.1875000   0.1875000   0.4375000  )
        26           Si  tau(  26) = (   0.6875000   0.1875000   0.4375000  )
        27           Si  tau(  27) = (   0.1875000   0.6875000   0.4375000  )
        28           Si  tau(  28) = (   0.6875000   0.6875000   0.4375000  )
        29           Si  tau(  29) = (   0.1875000   0.1875000   0.9375000  )
        30           Si  tau(  30) = (   0.6875000   0.1875000   0.9375000  )
        31           Si  tau(  31) = (   0.1875000   0.6875000   0.9375000  )
        32           Si  tau(  32) = (   0.6875000   0.6875000   0.9375000  )
        33           Si  tau(  33) = (   0.0625000   0.0625000   0.0625000  )
        34           Si  tau(  34) = (   0.5625000   0.0625000   0.0625000  )
        35           Si  tau(  35) = (   0.0625000   0.5625000   0.0625000  )
        36           Si  tau(  36) = (   0.5625000   0.5654043   0.0625000  )
        37           Si  tau(  37) = (   0.0625000   0.0625000   0.5625000  )
        38           Si  tau(  38) = (   0.5625000   0.0625000   0.5625000  )
        39           Si  tau(  39) = (   0.0625000   0.5625000   0.5625000  )
        40           Si  tau(  40) = (   0.5625000   0.5625000   0.5625000  )
        41           Si  tau(  41) = (   0.0625000   0.3125000   0.3125000  )
        42           Si  tau(  42) = (   0.5625000   0.3125000   0.3125000  )
        43           Si  tau(  43) = (   0.0625000   0.8125000   0.3125000  )
        44           Si  tau(  44) = (   0.5625000   0.8125000   0.3125000  )
        45           Si  tau(  45) = (   0.0625000   0.3125000   0.8125000  )
        46           Si  tau(  46) = (   0.5625000   0.3125000   0.8125000  )
        47           Si  tau(  47) = (   0.0625000   0.8125000   0.8125000  )
        48           Si  tau(  48) = (   0.5625000   0.8125000   0.8125000  )
        49           Si  tau(  49) = (   0.3125000   0.0625000   0.3125000  )
        50           Si  tau(  50) = (   0.8125000   0.0625000   0.3125000  )
        51           Si  tau(  51) = (   0.3125000   0.5625000   0.3125000  )
        52           Si  tau(  52) = (   0.8125000   0.5625000   0.3125000  )
        53           Si  tau(  53) = (   0.3125000   0.0625000   0.8125000  )
        54           Si  tau(  54) = (   0.8125000   0.0625000   0.8125000  )
        55           Si  tau(  55) = (   0.3125000   0.5625000   0.8125000  )
        56           Si  tau(  56) = (   0.8125000   0.5625000   0.8125000  )
        57           Si  tau(  57) = (   0.3125000   0.3125000   0.0625000  )
        58           Si  tau(  58) = (   0.8125000   0.3125000   0.0625000  )
        59           Si  tau(  59) = (   0.3125000   0.8125000   0.0625000  )
        60           Si  tau(  60) = (   0.8125000   0.8125000   0.0625000  )
        61           Si  tau(  61) = (   0.3125000   0.3125000   0.5625000  )
        62           Si  tau(  62) = (   0.8125000   0.3125000   0.5625000  )
        63           Si  tau(  63) = (   0.3125000   0.8125000   0.5625000  )
        64           Si  tau(  64) = (   0.8125000   0.8125000   0.5625000  )

     number of k points=     4  gaussian smearing, width (Ry)=  0.0100
                       cart. coord. in units 2pi/alat
        k(    1) = (   0.2500000   0.2500000   0.2500000), wk =   0.5000000
        k(    2) = (  -0.2500000  -0.2500000   0.2500000), wk =   0.5000000
        k(    3) = (  -0.2500000   0.2500000  -0.2500000), wk =   0.5000000
        k(    4) = (   0.2500000  -0.2500000  -0.2500000), wk =   0.5000000

     Dense  grid:   421349 G-vectors     FFT dimensions: (  96,  96,  96)

     Estimated max dynamical RAM per process >       2.05 GB

     Estimated total dynamical RAM >       4.11 GB

     Check: negative/imaginary core charge=   -0.000001    0.000000

     Initial potential from superposition of free atoms

     starting charge  255.96421, renormalised to  256.00000
     Starting wfcs are  256 randomized atomic wfcs

     total cpu time spent up to now is       70.5 secs

     Self-consistent Calculation

     iteration #  1     ecut=    50.00 Ry     beta= 0.70
     Davidson diagonalization with overlap
     ethr =  1.00E-02,  avg # of iterations =  3.0

     Threshold (ethr) on eigenvalues was too large:
     Diagonalizing with lowered threshold

     Davidson diagonalization with overlap
     ethr =  6.78E-04,  avg # of iterations =  2.0

     total cpu time spent up to now is      298.6 secs

     total energy              =    -730.80279600 Ry
     Harris-Foulkes estimate   =    -731.20888347 Ry
     estimated scf accuracy    <       1.72042137 Ry

     iteration #  2     ecut=    50.00 Ry     beta= 0.70
     Davidson diagonalization with overlap
     ethr =  6.72E-04,  avg # of iterations =  1.0

     total cpu time spent up to now is      367.3 secs

     total energy              =    -730.86488819 Ry
     Harris-Foulkes estimate   =    -730.87086453 Ry
     estimated scf accuracy    <       0.08013602 Ry

     iteration #  3     ecut=    50.00 Ry     beta= 0.70
     Davidson diagonalization with overlap
     ethr =  3.13E-05,  avg # of iterations = 11.5

     total cpu time spent up to now is      489.8 secs

     total energy              =    -730.87934552 Ry
     Harris-Foulkes estimate   =    -730.88059551 Ry
     estimated scf accuracy    <       0.00275311 Ry

     iteration #  4     ecut=    50.00 Ry     beta= 0.70
     Davidson diagonalization with overlap
     ethr =  1.08E-06,  avg # of iterations =  4.2

     total cpu time spent up to now is      595.7 secs

     total energy              =    -730.87969631 Ry
     Harris-Foulkes estimate   =    -730.88056586 Ry
     estimated scf accuracy    <       0.00244312 Ry

     iteration #  5     ecut=    50.00 Ry     beta= 0.70
     Davidson diagonalization with overlap
     ethr =  9.54E-07,  avg # of iterations =  2.0

     total cpu time spent up to now is      674.5 secs

     total energy              =    -730.87999660 Ry
     Harris-Foulkes estimate   =    -730.88009435 Ry
     estimated scf accuracy    <       0.00027811 Ry

     iteration #  6     ecut=    50.00 Ry     beta= 0.70
     Davidson diagonalization with overlap
     ethr =  1.09E-07,  avg # of iterations =  3.0

     total cpu time spent up to now is      743.3 secs

     total energy              =    -730.88001727 Ry
     Harris-Foulkes estimate   =    -730.88004564 Ry
     estimated scf accuracy    <       0.00007195 Ry

     iteration #  7     ecut=    50.00 Ry     beta= 0.70
     Davidson diagonalization with overlap
     ethr =  2.81E-08,  avg # of iterations =  2.0

     total cpu time spent up to now is      804.8 secs

     total energy              =    -730.88002794 Ry
     Harris-Foulkes estimate   =    -730.88002832 Ry
     estimated scf accuracy    <       0.00000255 Ry

     iteration #  8     ecut=    50.00 Ry     beta= 0.70
     Davidson diagonalization with overlap
     ethr =  9.96E-10,  avg # of iterations =  3.0

     total cpu time spent up to now is      881.2 secs

     total energy              =    -730.88002866 Ry
     Harris-Foulkes estimate   =    -730.88002906 Ry
     estimated scf accuracy    <       0.00000187 Ry

     iteration #  9     ecut=    50.00 Ry     beta= 0.70
     Davidson diagonalization with overlap
     ethr =  7.29E-10,  avg # of iterations =  2.0

     total cpu time spent up to now is      936.7 secs

     total energy              =    -730.88002857 Ry
     Harris-Foulkes estimate   =    -730.88002880 Ry
     estimated scf accuracy    <       0.00000080 Ry

     iteration # 10     ecut=    50.00 Ry     beta= 0.70
     Davidson diagonalization with overlap
     ethr =  3.11E-10,  avg # of iterations =  1.0

     total cpu time spent up to now is      989.0 secs

     total energy              =    -730.88002855 Ry
     Harris-Foulkes estimate   =    -730.88002862 Ry
     estimated scf accuracy    <       0.00000019 Ry

     iteration # 11     ecut=    50.00 Ry     beta= 0.70
     Davidson diagonalization with overlap
     ethr =  7.27E-11,  avg # of iterations =  3.0

     total cpu time spent up to now is     1051.2 secs

     total energy              =    -730.88002857 Ry
     Harris-Foulkes estimate   =    -730.88002857 Ry
     estimated scf accuracy    <       0.00000001 Ry

     iteration # 12     ecut=    50.00 Ry     beta= 0.70
     Davidson diagonalization with overlap
     ethr =  4.82E-12,  avg # of iterations =  3.0

     total cpu time spent up to now is     1123.0 secs

     End of self-consistent calculation

          k = 0.2500 0.2500 0.2500 ( 52563 PWs)   bands (ev):

    -5.6275  -5.1020  -5.0993  -5.0967  -4.6028  -4.6003  -4.5976  -4.1671
    -4.0699  -4.0672  -4.0649  -3.6603  -3.6534  -3.6515  -3.6512  -3.6492
    -3.6429  -3.4635  -3.4593  -3.4551  -2.9661  -2.9635  -2.9607  -2.5981
    -2.5943  -2.5907  -2.4337  -2.4282  -2.4265  -2.4257  -2.4239  -2.4181
    -0.8913  -0.8875  -0.8846  -0.8837  -0.8810  -0.8772  -0.7899  -0.7866
    -0.7828  -0.6734  -0.6681  -0.6628  -0.5896  -0.5821  -0.5742   0.1202
     0.1973   0.2004   0.2042   0.2048   0.2089   0.2120   1.0727   1.0791
     1.0855   1.4076   1.4120   1.4162   2.0180   2.0200   2.0222   2.0227
     2.0249   2.0270   2.0792   2.0815   2.0841   2.6315   2.6333   2.6350
     2.7312   2.7334   2.7357   2.7372   2.7394   2.7412   2.7867   2.7904
     2.7936   3.0939   3.0990   3.1005   3.1007   3.1023   3.1072   3.3623
     3.3650   3.3675   3.3753   3.3792   3.3829   3.7242   3.7278   3.7310
     3.7472   3.7503   3.7522   3.8302   3.8325   3.8347   4.0993   4.1049
     4.1071   4.1073   4.1094   4.1147   4.1440   4.1467   4.1492   4.4069
     4.4607   4.4638   4.4673   4.7049   4.7073   4.7097   4.7660   4.7719
     4.7788   4.9249   4.9336   5.2334   5.2366   5.2398   5.7122   5.7221
     6.9264   6.9303   6.9340   7.3678   7.3705   7.3733   7.5967   7.8530
     7.8563   7.8597   7.9820   7.9861   7.9899   8.1423   8.1448   8.1476
     8.1611   8.1650   8.1687   8.3907   8.3917   8.3966   8.3971   8.4016
     8.4028   8.4441

          k =-0.2500-0.2500 0.2500 ( 52563 PWs)   bands (ev):

    -5.6275  -5.1004  -5.0993  -5.0983  -4.6012  -4.6003  -4.5993  -4.1672
    -4.0688  -4.0673  -4.0657  -3.6573  -3.6529  -3.6516  -3.6512  -3.6499
    -3.6457  -3.4635  -3.4595  -3.4551  -2.9660  -2.9634  -2.9610  -2.5982
    -2.5941  -2.5907  -2.4331  -2.4277  -2.4268  -2.4253  -2.4244  -2.4187
    -0.8935  -0.8864  -0.8845  -0.8834  -0.8822  -0.8753  -0.7897  -0.7868
    -0.7826  -0.6734  -0.6680  -0.6628  -0.5871  -0.5822  -0.5768   0.1202
     0.1961   0.2032   0.2044   0.2046   0.2059   0.2131   1.0733   1.0791
     1.0849   1.4076   1.4120   1.4162   2.0174   2.0210   2.0224   2.0226
     2.0240   2.0275   2.0790   2.0815   2.0840   2.6310   2.6332   2.6356
     2.7308   2.7326   2.7363   2.7368   2.7399   2.7420   2.7858   2.7902
     2.7945   3.0959   3.0981   3.1003   3.1010   3.1032   3.1053   3.3625
     3.3649   3.3662   3.3756   3.3800   3.3832   3.7260   3.7278   3.7295
     3.7454   3.7496   3.7542   3.8297   3.8324   3.8352   4.0986   4.1060
     4.1070   4.1073   4.1081   4.1156   4.1435   4.1465   4.1500   4.4066
     4.4616   4.4643   4.4660   4.7042   4.7073   4.7104   4.7673   4.7719
     4.7774   4.9249   4.9336   5.2325   5.2364   5.2409   5.7122   5.7221
     6.9270   6.9301   6.9337   7.3654   7.3706   7.3756   7.5966   7.8515
     7.8563   7.8610   7.9821   7.9862   7.9901   8.1408   8.1447   8.1485
     8.1629   8.1653   8.1671   8.3912   8.3934   8.3968   8.3970   8.4002
     8.4023   8.4438

          k =-0.2500 0.2500-0.2500 ( 52563 PWs)   bands (ev):

    -5.6275  -5.1023  -5.0990  -5.0963  -4.6033  -4.6001  -4.5974  -4.1682
    -4.0711  -4.0674  -4.0646  -3.6568  -3.6548  -3.6535  -3.6517  -3.6482
    -3.6406  -3.4622  -3.4593  -3.4542  -2.9694  -2.9652  -2.9615  -2.5974
    -2.5942  -2.5904  -2.4313  -2.4297  -2.4283  -2.4267  -2.4227  -2.4156
    -0.8909  -0.8893  -0.8864  -0.8854  -0.8794  -0.8769  -0.7908  -0.7869
    -0.7841  -0.6739  -0.6681  -0.6671  -0.5830  -0.5775  -0.5727   0.1239
     0.1951   0.1990   0.2018   0.2027   0.2090   0.2107   1.0767   1.0811
     1.0867   1.4089   1.4120   1.4148   2.0179   2.0205   2.0222   2.0234
     2.0238   2.0261   2.0782   2.0796   2.0836   2.6333   2.6356   2.6369
     2.7296   2.7320   2.7340   2.7370   2.7378   2.7398   2.7845   2.7873
     2.7920   3.0960   3.0987   3.0996   3.1005   3.1033   3.1065   3.3620
     3.3628   3.3656   3.3755   3.3782   3.3807   3.7270   3.7298   3.7319
     3.7494   3.7532   3.7567   3.8281   3.8317   3.8341   4.1054   4.1061
     4.1084   4.1088   4.1130   4.1175   4.1414   4.1457   4.1492   4.4105
     4.4597   4.4608   4.4643   4.7018   4.7059   4.7082   4.7724   4.7769
     4.7819   4.9254   4.9306   5.2289   5.2347   5.2379   5.7119   5.7176
     6.9259   6.9278   6.9320   7.3636   7.3712   7.3745   7.5952   7.8498
     7.8553   7.8589   7.9836   7.9882   7.9906   8.1395   8.1457   8.1474
     8.1623   8.1636   8.1671   8.3918   8.3952   8.3977   8.3999   8.4034
     8.4036   8.4417

          k = 0.2500-0.2500-0.2500 ( 52563 PWs)   bands (ev):

    -5.6274  -5.1023  -5.0997  -5.0963  -4.6030  -4.6003  -4.5972  -4.1660
    -4.0701  -4.0672  -4.0637  -3.6628  -3.6545  -3.6510  -3.6491  -3.6480
    -3.6460  -3.4640  -3.4594  -3.4566  -2.9654  -2.9617  -2.9577  -2.5987
    -2.5944  -2.5911  -2.4361  -2.4293  -2.4255  -2.4237  -2.4225  -2.4208
    -0.8922  -0.8890  -0.8828  -0.8818  -0.8791  -0.8776  -0.7887  -0.7860
    -0.7819  -0.6690  -0.6677  -0.6620  -0.5913  -0.5866  -0.5813   0.1164
     0.1984   0.2002   0.2063   0.2073   0.2101   0.2143   1.0715   1.0770
     1.0814   1.4092   1.4119   1.4150   2.0185   2.0211   2.0215   2.0229
     2.0245   2.0268   2.0801   2.0834   2.0848   2.6298   2.6309   2.6333
     2.7332   2.7350   2.7360   2.7385   2.7408   2.7428   2.7884   2.7930
     2.7960   3.0946   3.0977   3.1007   3.1017   3.1027   3.1053   3.3642
     3.3664   3.3673   3.3779   3.3802   3.3836   3.7231   3.7249   3.7289
     3.7431   3.7470   3.7501   3.8310   3.8331   3.8368   4.0966   4.1014
     4.1055   4.1059   4.1082   4.1090   4.1452   4.1473   4.1515   4.4024
     4.4640   4.4670   4.4678   4.7062   4.7085   4.7132   4.7631   4.7675
     4.7714   4.9280   4.9329   5.2354   5.2383   5.2445   5.7167   5.7224
     6.9286   6.9327   6.9346   7.3667   7.3700   7.3772   7.5982   7.8538
     7.8573   7.8627   7.9815   7.9839   7.9885   8.1425   8.1439   8.1489
     8.1628   8.1665   8.1684   8.3900   8.3903   8.3938   8.3961   8.3981
     8.4017   8.4463

     the Fermi energy is     6.3201 ev

!    total energy              =    -730.88002857 Ry
     Harris-Foulkes estimate   =    -730.88002857 Ry
     estimated scf accuracy    <          4.2E-09 Ry

     The total energy is the sum of the following terms:

     one-electron contribution =     160.47291678 Ry
     hartree contribution      =      35.78733400 Ry
     xc contribution           =    -393.13399769 Ry
     ewald contribution        =    -534.00628167 Ry
     smearing contrib. (-TS)   =      -0.00000000 Ry

     convergence has been achieved in  12 iterations

     Forces acting on atoms (cartesian axes, Ry/au):

     atom    1 type  1   force =    -0.01600481   -0.00005661    0.00003770
     atom    2 type  1   force =     0.00005140    0.00025493    0.00002747
     atom    3 type  1   force =     0.00008463    0.00002991    0.00002710
     atom    4 type  1   force =     0.00002381   -0.00001903    0.00003066
     atom    5 type  1   force =     0.00256611    0.00384034    0.00250925
     atom    6 type  1   force =     0.00002973   -0.00005575    0.00005033
     atom    7 type  1   force =    -0.00043930   -0.00001015    0.00003618
     atom    8 type  1   force =     0.00005313    0.00002719    0.00002989
     atom    9 type  1   force =    -0.00056750    0.00010412    0.00015177
     atom   10 type  1   force =    -0.00002359    0.00003599    0.00003767
     atom   11 type  1   force =    -0.00326168    0.00406767    0.00262411
     atom   12 type  1   force =    -0.00003432   -0.00004945    0.00003882
     atom   13 type  1   force =    -0.00055166   -0.00008323    0.00013467
     atom   14 type  1   force =    -0.00002934   -0.00002898    0.00003918
     atom   15 type  1   force =    -0.00057924   -0.00017339   -0.00007475
     atom   16 type  1   force =    -0.00002672    0.00024884    0.00001938
     atom   17 type  1   force =     0.00019402   -0.00016670    0.00017389
     atom   18 type  1   force =    -0.00227131    0.00372324   -0.00273966
     atom   19 type  1   force =     0.00001631    0.00001930   -0.00010699
     atom   20 type  1   force =     0.00000735   -0.00001873    0.00003893
     atom   21 type  1   force =     0.00020277    0.00036559   -0.00025151
     atom   22 type  1   force =     0.00018600    0.00005727    0.00019224
     atom   23 type  1   force =     0.00001397   -0.00001114    0.00004634
     atom   24 type  1   force =     0.00001485    0.00003897   -0.00010197
     atom   25 type  1   force =     0.00026131    0.00020378   -0.00014122
     atom   26 type  1   force =     0.00026405   -0.00020231   -0.00013880
     atom   27 type  1   force =     0.00025761    0.00003427    0.00008241
     atom   28 type  1   force =     0.00028795    0.00017051    0.00007814
     atom   29 type  1   force =     0.00006973   -0.00005033   -0.00003593
     atom   30 type  1   force =     0.00008057    0.00006531   -0.00004758
     atom   31 type  1   force =     0.00008102    0.00001884   -0.00003988
     atom   32 type  1   force =     0.00278083    0.00388133   -0.00272775
     atom   33 type  1   force =    -0.00001895    0.00002292    0.00003146
     atom   34 type  1   force =     0.00025828    0.00005219    0.00002759
     atom   35 type  1   force =     0.00002598    0.00008378    0.00002486
     atom   36 type  1   force =    -0.00006110   -0.01600355    0.00003579
     atom   37 type  1   force =     0.00002628    0.00005118    0.00002599
     atom   38 type  1   force =    -0.00005864    0.00003278    0.00005010
     atom   39 type  1   force =    -0.00001083   -0.00043897    0.00003722
     atom   40 type  1   force =     0.00395938    0.00278986    0.00273795
     atom   41 type  1   force =    -0.00002060    0.00000638    0.00003993
     atom   42 type  1   force =     0.00384919   -0.00250689   -0.00295963
     atom   43 type  1   force =     0.00001706    0.00001883   -0.00010408
     atom   44 type  1   force =    -0.00017289    0.00020102    0.00018028
     atom   45 type  1   force =     0.00003620    0.00001772   -0.00010228
     atom   46 type  1   force =     0.00005142    0.00018138    0.00018517
     atom   47 type  1   force =    -0.00001004    0.00001244    0.00004618
     atom   48 type  1   force =     0.00037209    0.00020924   -0.00025754
     atom   49 type  1   force =    -0.00004801   -0.00003423    0.00004158
     atom   50 type  1   force =     0.00003847   -0.00002355    0.00003911
     atom   51 type  1   force =     0.00395375   -0.00304218    0.00239567
     atom   52 type  1   force =     0.00010186   -0.00056352    0.00014774
     atom   53 type  1   force =     0.00024665   -0.00002587    0.00001870
     atom   54 type  1   force =    -0.00003043   -0.00002886    0.00003878
     atom   55 type  1   force =    -0.00016651   -0.00057580   -0.00007361
     atom   56 type  1   force =    -0.00008565   -0.00055884    0.00014139
     atom   57 type  1   force =     0.00016730    0.00028090    0.00007350
     atom   58 type  1   force =    -0.00019571    0.00026104   -0.00013627
     atom   59 type  1   force =     0.00002406    0.00026564    0.00008514
     atom   60 type  1   force =     0.00021116    0.00026778   -0.00014559
     atom   61 type  1   force =     0.00376512    0.00255319   -0.00250054
     atom   62 type  1   force =     0.00006601    0.00008057   -0.00004658
     atom   63 type  1   force =     0.00001841    0.00008134   -0.00003978
     atom   64 type  1   force =    -0.00004701    0.00007052   -0.00003833

     Total force =     0.027456     Total SCF correction =     0.000117

     Writing output data file pwscf.save/
 
     init_run     :     43.32s CPU     69.51s WALL (       1 calls)
     electrons    :    967.50s CPU   1052.55s WALL (       1 calls)
     forces       :     16.34s CPU     16.95s WALL (       1 calls)

     Called by init_run:
     wfcinit      :     41.61s CPU     66.15s WALL (       1 calls)
     potinit      :      0.23s CPU      0.52s WALL (       1 calls)
     hinit0       :      0.59s CPU      0.82s WALL (       1 calls)

     Called by electrons:
     c_bands      :    830.63s CPU    900.31s WALL (      13 calls)
     sum_band     :    124.69s CPU    136.59s WALL (      13 calls)
     v_of_rho     :      2.98s CPU      3.29s WALL (      13 calls)
     newd         :      9.28s CPU     13.72s WALL (      13 calls)
     mix_rho      :      0.79s CPU      0.83s WALL (      13 calls)

     Called by c_bands:
     init_us_2    :     11.00s CPU     11.83s WALL (     112 calls)
     cegterg      :    745.63s CPU    809.79s WALL (      52 calls)

     Called by sum_band:
     sum_band:bec :      0.06s CPU      0.06s WALL (      52 calls)
     addusdens    :      9.97s CPU     13.71s WALL (      13 calls)

     Called by *egterg:
     h_psi        :    542.00s CPU    605.17s WALL (     219 calls)
     s_psi        :    118.25s CPU    126.77s WALL (     219 calls)
     g_psi        :      1.08s CPU      1.13s WALL (     163 calls)
     cdiaghg      :     10.47s CPU     10.97s WALL (     211 calls)

     Called by h_psi:
     h_psi:pot    :    540.04s CPU    600.81s WALL (     219 calls)
     h_psi:calbec :    118.81s CPU    129.46s WALL (     219 calls)
     vloc_psi     :    303.26s CPU    343.46s WALL (     219 calls)
     add_vuspsi   :    117.97s CPU    127.88s WALL (     219 calls)

     General routines
     calbec       :    173.26s CPU    186.50s WALL (     287 calls)
     fft          :      2.22s CPU      2.49s WALL (     156 calls)
     ffts         :      0.18s CPU      0.19s WALL (      13 calls)
     fftw         :    294.21s CPU    335.17s WALL (   50958 calls)
 
     Parallel routines
     fft_scatt_xy :     66.05s CPU     69.82s WALL (   51127 calls)
     fft_scatt_yz :     61.78s CPU     87.89s WALL (   51127 calls)
 
     PWSCF        : 17m 7.80s CPU    19m 0.44s WALL

 
   This run was terminated on:  16:51:15  14Feb2020            

=------------------------------------------------------------------------------=
   JOB DONE.
=------------------------------------------------------------------------------=
