
     Program PWSCF v.6.3MaX starts on 14Feb2020 at 19:49:55 

     This program is part of the open-source Quantum ESPRESSO suite
     for quantum simulation of materials; please cite
         "P. Giannozzi et al., J. Phys.:Condens. Matter 21 395502 (2009);
         "P. Giannozzi et al., J. Phys.:Condens. Matter 29 465901 (2017);
          URL http://www.quantum-espresso.org", 
     in publications or presentations arising from this work. More details at
     http://www.quantum-espresso.org/quote

     Parallel version (MPI), running on     2 processors

     MPI processes distributed on     1 nodes
     R & G space division:  proc/nbgrp/npool/nimage =       2
     Waiting for input...
     Reading input from standard input

     Current dimensions of program PWSCF are:
     Max number of different atomic species (ntypx) = 10
     Max number of k-points (npk) =  40000
     Max angular momentum in pseudopotentials (lmaxx) =  3

     Subspace diagonalization in iterative solution of the eigenvalue problem:
     a serial algorithm will be used

 
     Parallelization info
     --------------------
     sticks:   dense  smooth     PW     G-vecs:    dense   smooth      PW
     Min        3392    3392    878               210674   210674   27756
     Max        3393    3393    879               210675   210675   27759
     Sum        6785    6785   1757               421349   421349   55515
 


     bravais-lattice index     =            0
     lattice parameter (alat)  =      20.6591  a.u.
     unit-cell volume          =    8817.2783 (a.u.)^3
     number of atoms/cell      =           64
     number of atomic types    =            1
     number of electrons       =       256.00
     number of Kohn-Sham states=          154
     kinetic-energy cutoff     =      50.0000  Ry
     charge density cutoff     =     200.0000  Ry
     convergence threshold     =      1.0E-08
     mixing beta               =       0.7000
     number of iterations used =            8  plain     mixing
     Exchange-correlation      = PBE ( 1  4  3  4 0 0)

     celldm(1)=  20.659106  celldm(2)=   0.000000  celldm(3)=   0.000000
     celldm(4)=   0.000000  celldm(5)=   0.000000  celldm(6)=   0.000000

     crystal axes: (cart. coord. in units of alat)
               a(1) = (   1.000000   0.000000   0.000000 )  
               a(2) = (   0.000000   1.000000   0.000000 )  
               a(3) = (   0.000000   0.000000   1.000000 )  

     reciprocal axes: (cart. coord. in units 2 pi/alat)
               b(1) = (  1.000000  0.000000  0.000000 )  
               b(2) = (  0.000000  1.000000  0.000000 )  
               b(3) = (  0.000000  0.000000  1.000000 )  


     PseudoPot. # 1 for Si read from file:
     ~/kedar/softwares/SSSP_precision_pseudos/Si.pbe-n-rrkjus_psl.1.0.0.UPF
     MD5 check sum: Not computed, couldn't open file
     Pseudo is Ultrasoft + core correction, Zval =  4.0
     Generated using "atomic" code by A. Dal Corso v.5.1
     Using radial grid of 1141 points,  6 beta functions with: 
                l(1) =   0
                l(2) =   0
                l(3) =   1
                l(4) =   1
                l(5) =   2
                l(6) =   2
     Q(r) pseudized with 0 coefficients 


     atomic species   valence    mass     pseudopotential
        Si             4.00    28.08550     Si( 1.00)

     No symmetry found



   Cartesian axes

     site n.     atom                  positions (alat units)
         1           Si  tau(   1) = (   0.4404043   0.4375000   0.4375000  )
         2           Si  tau(   2) = (   0.9375000   0.4375000   0.4375000  )
         3           Si  tau(   3) = (   0.4375000   0.9375000   0.4375000  )
         4           Si  tau(   4) = (   0.9375000   0.9375000   0.4375000  )
         5           Si  tau(   5) = (   0.4375000   0.4375000   0.9375000  )
         6           Si  tau(   6) = (   0.9375000   0.4375000   0.9375000  )
         7           Si  tau(   7) = (   0.4375000   0.9375000   0.9375000  )
         8           Si  tau(   8) = (   0.9375000   0.9375000   0.9375000  )
         9           Si  tau(   9) = (   0.4375000   0.1875000   0.1875000  )
        10           Si  tau(  10) = (   0.9375000   0.1875000   0.1875000  )
        11           Si  tau(  11) = (   0.4375000   0.6875000   0.1875000  )
        12           Si  tau(  12) = (   0.9375000   0.6875000   0.1875000  )
        13           Si  tau(  13) = (   0.4375000   0.1875000   0.6875000  )
        14           Si  tau(  14) = (   0.9375000   0.1875000   0.6875000  )
        15           Si  tau(  15) = (   0.4375000   0.6875000   0.6875000  )
        16           Si  tau(  16) = (   0.9375000   0.6875000   0.6875000  )
        17           Si  tau(  17) = (   0.1875000   0.4375000   0.1875000  )
        18           Si  tau(  18) = (   0.6875000   0.4375000   0.1875000  )
        19           Si  tau(  19) = (   0.1875000   0.9375000   0.1875000  )
        20           Si  tau(  20) = (   0.6875000   0.9375000   0.1875000  )
        21           Si  tau(  21) = (   0.1875000   0.4375000   0.6875000  )
        22           Si  tau(  22) = (   0.6875000   0.4375000   0.6875000  )
        23           Si  tau(  23) = (   0.1875000   0.9375000   0.6875000  )
        24           Si  tau(  24) = (   0.6875000   0.9375000   0.6875000  )
        25           Si  tau(  25) = (   0.1875000   0.1875000   0.4375000  )
        26           Si  tau(  26) = (   0.6875000   0.1875000   0.4375000  )
        27           Si  tau(  27) = (   0.1875000   0.6875000   0.4375000  )
        28           Si  tau(  28) = (   0.6875000   0.6875000   0.4375000  )
        29           Si  tau(  29) = (   0.1875000   0.1875000   0.9375000  )
        30           Si  tau(  30) = (   0.6875000   0.1875000   0.9375000  )
        31           Si  tau(  31) = (   0.1875000   0.6875000   0.9375000  )
        32           Si  tau(  32) = (   0.6875000   0.6875000   0.9375000  )
        33           Si  tau(  33) = (   0.0625000   0.0625000   0.0625000  )
        34           Si  tau(  34) = (   0.5625000   0.0625000   0.0625000  )
        35           Si  tau(  35) = (   0.0625000   0.5625000   0.0625000  )
        36           Si  tau(  36) = (   0.5625000   0.5625000   0.0625000  )
        37           Si  tau(  37) = (   0.0625000   0.0625000   0.5625000  )
        38           Si  tau(  38) = (   0.5625000   0.0625000   0.5625000  )
        39           Si  tau(  39) = (   0.0625000   0.5625000   0.5625000  )
        40           Si  tau(  40) = (   0.5625000   0.5625000   0.5625000  )
        41           Si  tau(  41) = (   0.0625000   0.3125000   0.3125000  )
        42           Si  tau(  42) = (   0.5625000   0.3125000   0.3125000  )
        43           Si  tau(  43) = (   0.0625000   0.8125000   0.3125000  )
        44           Si  tau(  44) = (   0.5625000   0.8125000   0.3125000  )
        45           Si  tau(  45) = (   0.0625000   0.3125000   0.8125000  )
        46           Si  tau(  46) = (   0.5625000   0.3125000   0.8125000  )
        47           Si  tau(  47) = (   0.0625000   0.8125000   0.8125000  )
        48           Si  tau(  48) = (   0.5625000   0.8125000   0.8125000  )
        49           Si  tau(  49) = (   0.3125000   0.0625000   0.3125000  )
        50           Si  tau(  50) = (   0.8154043   0.0625000   0.3125000  )
        51           Si  tau(  51) = (   0.3125000   0.5625000   0.3125000  )
        52           Si  tau(  52) = (   0.8125000   0.5625000   0.3125000  )
        53           Si  tau(  53) = (   0.3125000   0.0625000   0.8125000  )
        54           Si  tau(  54) = (   0.8125000   0.0625000   0.8125000  )
        55           Si  tau(  55) = (   0.3125000   0.5625000   0.8125000  )
        56           Si  tau(  56) = (   0.8125000   0.5625000   0.8125000  )
        57           Si  tau(  57) = (   0.3125000   0.3125000   0.0625000  )
        58           Si  tau(  58) = (   0.8125000   0.3125000   0.0625000  )
        59           Si  tau(  59) = (   0.3125000   0.8125000   0.0625000  )
        60           Si  tau(  60) = (   0.8125000   0.8125000   0.0625000  )
        61           Si  tau(  61) = (   0.3125000   0.3125000   0.5625000  )
        62           Si  tau(  62) = (   0.8125000   0.3125000   0.5625000  )
        63           Si  tau(  63) = (   0.3125000   0.8125000   0.5625000  )
        64           Si  tau(  64) = (   0.8125000   0.8125000   0.5625000  )

     number of k points=     4  gaussian smearing, width (Ry)=  0.0100
                       cart. coord. in units 2pi/alat
        k(    1) = (   0.2500000   0.2500000   0.2500000), wk =   0.5000000
        k(    2) = (  -0.2500000  -0.2500000   0.2500000), wk =   0.5000000
        k(    3) = (  -0.2500000   0.2500000  -0.2500000), wk =   0.5000000
        k(    4) = (   0.2500000  -0.2500000  -0.2500000), wk =   0.5000000

     Dense  grid:   421349 G-vectors     FFT dimensions: (  96,  96,  96)

     Estimated max dynamical RAM per process >       2.05 GB

     Estimated total dynamical RAM >       4.11 GB

     Check: negative/imaginary core charge=   -0.000001    0.000000

     Initial potential from superposition of free atoms

     starting charge  255.96421, renormalised to  256.00000
     Starting wfcs are  256 randomized atomic wfcs

     total cpu time spent up to now is       90.5 secs

     Self-consistent Calculation

     iteration #  1     ecut=    50.00 Ry     beta= 0.70
     Davidson diagonalization with overlap
     ethr =  1.00E-02,  avg # of iterations =  3.0

     Threshold (ethr) on eigenvalues was too large:
     Diagonalizing with lowered threshold

     Davidson diagonalization with overlap
     ethr =  6.78E-04,  avg # of iterations =  2.0

     total cpu time spent up to now is      444.6 secs

     total energy              =    -730.80301284 Ry
     Harris-Foulkes estimate   =    -731.20920583 Ry
     estimated scf accuracy    <       1.72073675 Ry

     iteration #  2     ecut=    50.00 Ry     beta= 0.70
     Davidson diagonalization with overlap
     ethr =  6.72E-04,  avg # of iterations =  1.0

     total cpu time spent up to now is      598.3 secs

     total energy              =    -730.86497935 Ry
     Harris-Foulkes estimate   =    -730.87094469 Ry
     estimated scf accuracy    <       0.08011988 Ry

     iteration #  3     ecut=    50.00 Ry     beta= 0.70
     Davidson diagonalization with overlap
     ethr =  3.13E-05,  avg # of iterations = 10.2

     total cpu time spent up to now is      875.1 secs

     total energy              =    -730.87934461 Ry
     Harris-Foulkes estimate   =    -730.88058365 Ry
     estimated scf accuracy    <       0.00273327 Ry

     iteration #  4     ecut=    50.00 Ry     beta= 0.70
     Davidson diagonalization with overlap
     ethr =  1.07E-06,  avg # of iterations =  4.5

     total cpu time spent up to now is     1073.6 secs

     total energy              =    -730.87973186 Ry
     Harris-Foulkes estimate   =    -730.88053441 Ry
     estimated scf accuracy    <       0.00219397 Ry

     iteration #  5     ecut=    50.00 Ry     beta= 0.70
     Davidson diagonalization with overlap
     ethr =  8.57E-07,  avg # of iterations =  2.0

     total cpu time spent up to now is     1213.5 secs

     total energy              =    -730.88000088 Ry
     Harris-Foulkes estimate   =    -730.88007785 Ry
     estimated scf accuracy    <       0.00020318 Ry

     iteration #  6     ecut=    50.00 Ry     beta= 0.70
     Davidson diagonalization with overlap
     ethr =  7.94E-08,  avg # of iterations =  3.0

     total cpu time spent up to now is     1284.3 secs

     total energy              =    -730.88001638 Ry
     Harris-Foulkes estimate   =    -730.88004060 Ry
     estimated scf accuracy    <       0.00006772 Ry

     iteration #  7     ecut=    50.00 Ry     beta= 0.70
     Davidson diagonalization with overlap
     ethr =  2.65E-08,  avg # of iterations =  2.0

     total cpu time spent up to now is     1348.5 secs

     total energy              =    -730.88002653 Ry
     Harris-Foulkes estimate   =    -730.88002719 Ry
     estimated scf accuracy    <       0.00000359 Ry

     iteration #  8     ecut=    50.00 Ry     beta= 0.70
     Davidson diagonalization with overlap
     ethr =  1.40E-09,  avg # of iterations =  3.0

     total cpu time spent up to now is     1424.6 secs

     total energy              =    -730.88002720 Ry
     Harris-Foulkes estimate   =    -730.88002767 Ry
     estimated scf accuracy    <       0.00000197 Ry

     iteration #  9     ecut=    50.00 Ry     beta= 0.70
     Davidson diagonalization with overlap
     ethr =  7.70E-10,  avg # of iterations =  1.0

     total cpu time spent up to now is     1480.4 secs

     total energy              =    -730.88002711 Ry
     Harris-Foulkes estimate   =    -730.88002731 Ry
     estimated scf accuracy    <       0.00000058 Ry

     iteration # 10     ecut=    50.00 Ry     beta= 0.70
     Davidson diagonalization with overlap
     ethr =  2.28E-10,  avg # of iterations =  2.0

     total cpu time spent up to now is     1541.3 secs

     total energy              =    -730.88002714 Ry
     Harris-Foulkes estimate   =    -730.88002717 Ry
     estimated scf accuracy    <       0.00000008 Ry

     iteration # 11     ecut=    50.00 Ry     beta= 0.70
     Davidson diagonalization with overlap
     ethr =  3.14E-11,  avg # of iterations =  3.0

     total cpu time spent up to now is     1608.6 secs

     total energy              =    -730.88002714 Ry
     Harris-Foulkes estimate   =    -730.88002716 Ry
     estimated scf accuracy    <       0.00000003 Ry

     iteration # 12     ecut=    50.00 Ry     beta= 0.70
     Davidson diagonalization with overlap
     ethr =  9.84E-12,  avg # of iterations =  3.0

     total cpu time spent up to now is     1698.6 secs

     End of self-consistent calculation

          k = 0.2500 0.2500 0.2500 ( 52563 PWs)   bands (ev):

    -5.6275  -5.1020  -5.0993  -5.0967  -4.6027  -4.6003  -4.5977  -4.1671
    -4.0697  -4.0674  -4.0650  -3.6601  -3.6538  -3.6531  -3.6497  -3.6489
    -3.6429  -3.4646  -3.4594  -3.4540  -2.9657  -2.9636  -2.9612  -2.5995
    -2.5942  -2.5892  -2.4338  -2.4291  -2.4280  -2.4240  -2.4231  -2.4181
    -0.8915  -0.8878  -0.8863  -0.8820  -0.8806  -0.8773  -0.7909  -0.7864
    -0.7816  -0.6717  -0.6682  -0.6645  -0.5894  -0.5821  -0.5744   0.1202
     0.1976   0.1993   0.2027   0.2064   0.2100   0.2115   1.0737   1.0792
     1.0843   1.4104   1.4120   1.4135   2.0184   2.0195   2.0211   2.0240
     2.0254   2.0266   2.0788   2.0814   2.0845   2.6309   2.6332   2.6357
     2.7300   2.7319   2.7361   2.7370   2.7409   2.7426   2.7872   2.7898
     2.7931   3.0960   3.0979   3.1000   3.1013   3.1036   3.1049   3.3627
     3.3647   3.3667   3.3779   3.3797   3.3805   3.7244   3.7276   3.7308
     3.7448   3.7501   3.7550   3.8300   3.8324   3.8350   4.0979   4.1048
     4.1068   4.1076   4.1096   4.1161   4.1436   4.1469   4.1496   4.4067
     4.4615   4.4638   4.4665   4.7043   4.7073   4.7103   4.7667   4.7719
     4.7780   4.9293   4.9293   5.2325   5.2366   5.2407   5.7171   5.7173
     6.9262   6.9303   6.9342   7.3656   7.3706   7.3755   7.5967   7.8524
     7.8564   7.8600   7.9814   7.9860   7.9908   8.1416   8.1447   8.1472
     8.1619   8.1654   8.1685   8.3912   8.3924   8.3955   8.3982   8.4012
     8.4023   8.4442

          k =-0.2500-0.2500 0.2500 ( 52563 PWs)   bands (ev):

    -5.6275  -5.1030  -5.0993  -5.0956  -4.6039  -4.6002  -4.5966  -4.1670
    -4.0710  -4.0674  -4.0638  -3.6601  -3.6547  -3.6522  -3.6505  -3.6481
    -3.6431  -3.4594  -3.4594  -3.4590  -2.9674  -2.9635  -2.9595  -2.5948
    -2.5943  -2.5941  -2.4342  -2.4289  -2.4272  -2.4249  -2.4231  -2.4176
    -0.8928  -0.8877  -0.8861  -0.8822  -0.8807  -0.8762  -0.7866  -0.7865
    -0.7858  -0.6683  -0.6682  -0.6678  -0.5896  -0.5821  -0.5744   0.1202
     0.1979   0.2000   0.2020   0.2071   0.2092   0.2111   1.0719   1.0791
     1.0862   1.4098   1.4120   1.4141   2.0183   2.0202   2.0219   2.0231
     2.0245   2.0263   2.0793   2.0818   2.0841   2.6316   2.6334   2.6348
     2.7321   2.7326   2.7356   2.7373   2.7395   2.7403   2.7872   2.7903
     2.7939   3.0946   3.0978   3.1005   3.1007   3.1034   3.1066   3.3628
     3.3648   3.3665   3.3775   3.3797   3.3810   3.7233   3.7277   3.7319
     3.7479   3.7496   3.7523   3.8294   3.8323   3.8354   4.1009   4.1043
     4.1064   4.1080   4.1093   4.1137   4.1435   4.1465   4.1504   4.4069
     4.4608   4.4642   4.4666   4.7040   4.7071   4.7105   4.7658   4.7719
     4.7789   4.9293   4.9294   5.2324   5.2365   5.2410   5.7171   5.7172
     6.9296   6.9303   6.9308   7.3649   7.3706   7.3761   7.5967   7.8518
     7.8564   7.8607   7.9859   7.9860   7.9861   8.1409   8.1451   8.1484
     8.1622   8.1650   8.1678   8.3903   8.3927   8.3955   8.3984   8.4009
     8.4032   8.4442

          k =-0.2500 0.2500-0.2500 ( 52563 PWs)   bands (ev):

    -5.6275  -5.1030  -5.0993  -5.0956  -4.6039  -4.6003  -4.5966  -4.1672
    -4.0709  -4.0673  -4.0637  -3.6591  -3.6538  -3.6519  -3.6509  -3.6490
    -3.6441  -3.4617  -3.4594  -3.4568  -2.9674  -2.9634  -2.9595  -2.5993
    -2.5943  -2.5894  -2.4335  -2.4282  -2.4261  -2.4260  -2.4238  -2.4184
    -0.8936  -0.8872  -0.8844  -0.8837  -0.8813  -0.8751  -0.7924  -0.7864
    -0.7806  -0.6708  -0.6682  -0.6650  -0.5896  -0.5821  -0.5743   0.1201
     0.1953   0.1999   0.2039   0.2052   0.2096   0.2136   1.0718   1.0791
     1.0862   1.4098   1.4120   1.4141   2.0180   2.0205   2.0217   2.0233
     2.0245   2.0268   2.0791   2.0814   2.0839   2.6306   2.6333   2.6358
     2.7306   2.7324   2.7358   2.7373   2.7407   2.7420   2.7868   2.7900
     2.7935   3.0946   3.0976   3.1000   3.1012   3.1037   3.1065   3.3642
     3.3649   3.3651   3.3775   3.3794   3.3811   3.7232   3.7275   3.7319
     3.7472   3.7496   3.7532   3.8295   3.8324   3.8355   4.1005   4.1042
     4.1068   4.1075   4.1098   4.1140   4.1432   4.1465   4.1502   4.4070
     4.4635   4.4638   4.4642   4.7041   4.7072   4.7107   4.7658   4.7719
     4.7789   4.9291   4.9293   5.2323   5.2365   5.2410   5.7171   5.7173
     6.9297   6.9303   6.9307   7.3649   7.3706   7.3761   7.5967   7.8518
     7.8564   7.8607   7.9827   7.9862   7.9891   8.1408   8.1452   8.1481
     8.1649   8.1649   8.1658   8.3898   8.3915   8.3967   8.3970   8.4017
     8.4037   8.4444

          k = 0.2500-0.2500-0.2500 ( 52563 PWs)   bands (ev):

    -5.6275  -5.1035  -5.0993  -5.0952  -4.6044  -4.6001  -4.5962  -4.1672
    -4.0716  -4.0673  -4.0629  -3.6613  -3.6542  -3.6520  -3.6506  -3.6486
    -3.6418  -3.4647  -3.4594  -3.4541  -2.9686  -2.9634  -2.9584  -2.5995
    -2.5943  -2.5892  -2.4353  -2.4285  -2.4269  -2.4253  -2.4234  -2.4167
    -0.8921  -0.8864  -0.8845  -0.8836  -0.8826  -0.8767  -0.7908  -0.7862
    -0.7816  -0.6717  -0.6680  -0.6645  -0.5871  -0.5821  -0.5769   0.1201
     0.1971   0.2024   0.2034   0.2057   0.2068   0.2122   1.0737   1.0791
     1.0843   1.4097   1.4119   1.4143   2.0184   2.0195   2.0221   2.0230
     2.0256   2.0261   2.0798   2.0815   2.0835   2.6309   2.6333   2.6356
     2.7299   2.7324   2.7348   2.7381   2.7405   2.7426   2.7874   2.7898
     2.7930   3.0961   3.0975   3.0992   3.1021   3.1040   3.1050   3.3627
     3.3648   3.3667   3.3771   3.3796   3.3814   3.7238   3.7278   3.7308
     3.7451   3.7500   3.7552   3.8300   3.8324   3.8349   4.0983   4.1039
     4.1071   4.1073   4.1104   4.1155   4.1440   4.1467   4.1496   4.4067
     4.4615   4.4638   4.4665   4.7046   4.7073   4.7100   4.7674   4.7719
     4.7772   4.9292   4.9294   5.2332   5.2365   5.2400   5.7171   5.7173
     6.9262   6.9303   6.9342   7.3667   7.3706   7.3743   7.5967   7.8531
     7.8564   7.8594   7.9814   7.9860   7.9907   8.1410   8.1449   8.1481
     8.1618   8.1650   8.1684   8.3901   8.3925   8.3966   8.3972   8.4009
     8.4032   8.4444

     the Fermi energy is     6.3203 ev

!    total energy              =    -730.88002715 Ry
     Harris-Foulkes estimate   =    -730.88002715 Ry
     estimated scf accuracy    <          4.3E-09 Ry

     The total energy is the sum of the following terms:

     one-electron contribution =     160.47304763 Ry
     hartree contribution      =      35.78726593 Ry
     xc contribution           =    -393.13399829 Ry
     ewald contribution        =    -534.00634242 Ry
     smearing contrib. (-TS)   =      -0.00000000 Ry

     convergence has been achieved in  12 iterations

     Forces acting on atoms (cartesian axes, Ry/au):

     atom    1 type  1   force =    -0.01602674   -0.00002630    0.00002622
     atom    2 type  1   force =    -0.00003315   -0.00003716    0.00004843
     atom    3 type  1   force =     0.00004465   -0.00003733    0.00003769
     atom    4 type  1   force =     0.00395213   -0.00273694    0.00273613
     atom    5 type  1   force =     0.00003546   -0.00003144    0.00003095
     atom    6 type  1   force =     0.00025096   -0.00002808    0.00002953
     atom    7 type  1   force =    -0.00044837   -0.00002661    0.00002505
     atom    8 type  1   force =    -0.00003357   -0.00004875    0.00003774
     atom    9 type  1   force =    -0.00053983    0.00015231    0.00007730
     atom   10 type  1   force =     0.00396074    0.00274486   -0.00272680
     atom   11 type  1   force =    -0.00049826    0.00013505   -0.00013674
     atom   12 type  1   force =    -0.00005764    0.00004736   -0.00005814
     atom   13 type  1   force =    -0.00050051   -0.00008382    0.00008556
     atom   14 type  1   force =    -0.00005548    0.00003885   -0.00002799
     atom   15 type  1   force =    -0.00054970   -0.00008384   -0.00014560
     atom   16 type  1   force =     0.00026042    0.00002000   -0.00003820
     atom   17 type  1   force =     0.00025952   -0.00008406    0.00025341
     atom   18 type  1   force =     0.00018043   -0.00007719   -0.00018094
     atom   19 type  1   force =     0.00003360    0.00002803   -0.00003835
     atom   20 type  1   force =     0.00388370    0.00249979    0.00258620
     atom   21 type  1   force =     0.00021211    0.00013941   -0.00019385
     atom   22 type  1   force =     0.00049235    0.00014365    0.00025923
     atom   23 type  1   force =     0.00007241    0.00003917    0.00010184
     atom   24 type  1   force =    -0.00001281    0.00006005   -0.00003969
     atom   25 type  1   force =     0.00022088    0.00018644   -0.00014706
     atom   26 type  1   force =     0.00407800   -0.00274166   -0.00262402
     atom   27 type  1   force =     0.00025882   -0.00025011    0.00008104
     atom   28 type  1   force =     0.00018076    0.00019489    0.00006306
     atom   29 type  1   force =     0.00007290   -0.00010517   -0.00003669
     atom   30 type  1   force =    -0.00001337    0.00002510   -0.00004494
     atom   31 type  1   force =     0.00002429    0.00004558   -0.00002098
     atom   32 type  1   force =     0.00029896   -0.00010398   -0.00001750
     atom   33 type  1   force =     0.00021692    0.00014568   -0.00019793
     atom   34 type  1   force =     0.00048942    0.00013830    0.00025216
     atom   35 type  1   force =     0.00007031    0.00003614    0.00010116
     atom   36 type  1   force =    -0.00001388    0.00005855   -0.00003844
     atom   37 type  1   force =     0.00026508   -0.00009015    0.00025646
     atom   38 type  1   force =     0.00017203   -0.00007388   -0.00017554
     atom   39 type  1   force =     0.00003393    0.00002858   -0.00004002
     atom   40 type  1   force =     0.00400152    0.00272845    0.00281368
     atom   41 type  1   force =     0.00022740    0.00019233   -0.00015208
     atom   42 type  1   force =     0.00418653   -0.00296118   -0.00284938
     atom   43 type  1   force =     0.00026364   -0.00025409    0.00008841
     atom   44 type  1   force =     0.00017303    0.00018619    0.00006063
     atom   45 type  1   force =     0.00007175   -0.00010394   -0.00003434
     atom   46 type  1   force =    -0.00001539    0.00002785   -0.00004576
     atom   47 type  1   force =     0.00002396    0.00004530   -0.00002226
     atom   48 type  1   force =     0.00030216   -0.00010476   -0.00001844
     atom   49 type  1   force =    -0.00003371   -0.00003672    0.00005102
     atom   50 type  1   force =    -0.01602755   -0.00002616    0.00002920
     atom   51 type  1   force =     0.00383314   -0.00251076    0.00251010
     atom   52 type  1   force =     0.00004620   -0.00003528    0.00003542
     atom   53 type  1   force =     0.00024871   -0.00002691    0.00002703
     atom   54 type  1   force =     0.00003594   -0.00003101    0.00003085
     atom   55 type  1   force =    -0.00003061   -0.00005097    0.00003669
     atom   56 type  1   force =    -0.00044839   -0.00002973    0.00002784
     atom   57 type  1   force =    -0.00005506    0.00004139   -0.00002715
     atom   58 type  1   force =    -0.00050193   -0.00008418    0.00008775
     atom   59 type  1   force =     0.00025807    0.00001807   -0.00003688
     atom   60 type  1   force =    -0.00054602   -0.00007983   -0.00013919
     atom   61 type  1   force =     0.00384086    0.00251971   -0.00250048
     atom   62 type  1   force =    -0.00053489    0.00014627    0.00007316
     atom   63 type  1   force =    -0.00005583    0.00004671   -0.00006035
     atom   64 type  1   force =    -0.00050100    0.00014192   -0.00014520

     Total force =     0.027565     Total SCF correction =     0.000122

     Writing output data file pwscf.save/
 
     init_run     :     40.71s CPU     89.61s WALL (       1 calls)
     electrons    :    995.78s CPU   1608.13s WALL (       1 calls)
     forces       :     19.38s CPU     32.58s WALL (       1 calls)

     Called by init_run:
     wfcinit      :     39.08s CPU     85.48s WALL (       1 calls)
     potinit      :      0.35s CPU      0.81s WALL (       1 calls)
     hinit0       :      0.39s CPU      0.90s WALL (       1 calls)

     Called by electrons:
     c_bands      :    851.86s CPU   1371.57s WALL (      13 calls)
     sum_band     :    131.19s CPU    212.71s WALL (      13 calls)
     v_of_rho     :      3.16s CPU      5.14s WALL (      13 calls)
     newd         :      9.75s CPU     20.21s WALL (      13 calls)
     mix_rho      :      0.80s CPU      1.13s WALL (      13 calls)

     Called by c_bands:
     init_us_2    :     10.94s CPU     17.69s WALL (     112 calls)
     cegterg      :    762.59s CPU   1235.54s WALL (      52 calls)

     Called by sum_band:
     sum_band:bec :      0.06s CPU      0.07s WALL (      52 calls)
     addusdens    :     10.40s CPU     21.08s WALL (      13 calls)

     Called by *egterg:
     h_psi        :    551.03s CPU    905.72s WALL (     215 calls)
     s_psi        :    120.77s CPU    191.38s WALL (     215 calls)
     g_psi        :      1.01s CPU      1.61s WALL (     159 calls)
     cdiaghg      :     10.48s CPU     18.56s WALL (     207 calls)

     Called by h_psi:
     h_psi:pot    :    549.16s CPU    899.35s WALL (     215 calls)
     h_psi:calbec :    121.98s CPU    194.76s WALL (     215 calls)
     vloc_psi     :    306.38s CPU    515.43s WALL (     215 calls)
     add_vuspsi   :    120.80s CPU    189.15s WALL (     215 calls)

     General routines
     calbec       :    180.58s CPU    287.40s WALL (     283 calls)
     fft          :      2.85s CPU      4.75s WALL (     156 calls)
     ffts         :      0.18s CPU      0.26s WALL (      13 calls)
     fftw         :    306.30s CPU    535.56s WALL (   50470 calls)
 
     Parallel routines
     fft_scatt_xy :     63.24s CPU     80.65s WALL (   50639 calls)
     fft_scatt_yz :     77.91s CPU    234.09s WALL (   50639 calls)
 
     PWSCF        : 17m36.59s CPU    28m52.49s WALL

 
   This run was terminated on:  20:18:47  14Feb2020            

=------------------------------------------------------------------------------=
   JOB DONE.
=------------------------------------------------------------------------------=
