
     Program PWSCF v.6.3MaX starts on 13Feb2020 at 22: 3: 2 

     This program is part of the open-source Quantum ESPRESSO suite
     for quantum simulation of materials; please cite
         "P. Giannozzi et al., J. Phys.:Condens. Matter 21 395502 (2009);
         "P. Giannozzi et al., J. Phys.:Condens. Matter 29 465901 (2017);
          URL http://www.quantum-espresso.org", 
     in publications or presentations arising from this work. More details at
     http://www.quantum-espresso.org/quote

     Parallel version (MPI), running on     2 processors

     MPI processes distributed on     1 nodes
     R & G space division:  proc/nbgrp/npool/nimage =       2
     Waiting for input...
     Reading input from standard input

     Current dimensions of program PWSCF are:
     Max number of different atomic species (ntypx) = 10
     Max number of k-points (npk) =  40000
     Max angular momentum in pseudopotentials (lmaxx) =  3

     Subspace diagonalization in iterative solution of the eigenvalue problem:
     a serial algorithm will be used

 
     Parallelization info
     --------------------
     sticks:   dense  smooth     PW     G-vecs:    dense   smooth      PW
     Min        3392    3392    878               210674   210674   27756
     Max        3393    3393    879               210675   210675   27759
     Sum        6785    6785   1757               421349   421349   55515
 


     bravais-lattice index     =            0
     lattice parameter (alat)  =      20.6591  a.u.
     unit-cell volume          =    8817.2783 (a.u.)^3
     number of atoms/cell      =           64
     number of atomic types    =            1
     number of electrons       =       256.00
     number of Kohn-Sham states=          154
     kinetic-energy cutoff     =      50.0000  Ry
     charge density cutoff     =     200.0000  Ry
     convergence threshold     =      1.0E-08
     mixing beta               =       0.7000
     number of iterations used =            8  plain     mixing
     Exchange-correlation      = PBE ( 1  4  3  4 0 0)

     celldm(1)=  20.659106  celldm(2)=   0.000000  celldm(3)=   0.000000
     celldm(4)=   0.000000  celldm(5)=   0.000000  celldm(6)=   0.000000

     crystal axes: (cart. coord. in units of alat)
               a(1) = (   1.000000   0.000000   0.000000 )  
               a(2) = (   0.000000   1.000000   0.000000 )  
               a(3) = (   0.000000   0.000000   1.000000 )  

     reciprocal axes: (cart. coord. in units 2 pi/alat)
               b(1) = (  1.000000  0.000000  0.000000 )  
               b(2) = (  0.000000  1.000000  0.000000 )  
               b(3) = (  0.000000  0.000000  1.000000 )  


     PseudoPot. # 1 for Si read from file:
     ~/kedar/softwares/SSSP_precision_pseudos/Si.pbe-n-rrkjus_psl.1.0.0.UPF
     MD5 check sum: Not computed, couldn't open file
     Pseudo is Ultrasoft + core correction, Zval =  4.0
     Generated using "atomic" code by A. Dal Corso v.5.1
     Using radial grid of 1141 points,  6 beta functions with: 
                l(1) =   0
                l(2) =   0
                l(3) =   1
                l(4) =   1
                l(5) =   2
                l(6) =   2
     Q(r) pseudized with 0 coefficients 


     atomic species   valence    mass     pseudopotential
        Si             4.00    28.08550     Si( 1.00)

     No symmetry found



   Cartesian axes

     site n.     atom                  positions (alat units)
         1           Si  tau(   1) = (   0.4404043   0.4375000   0.4375000  )
         2           Si  tau(   2) = (   0.9375000   0.4375000   0.4375000  )
         3           Si  tau(   3) = (   0.4375000   0.9375000   0.4375000  )
         4           Si  tau(   4) = (   0.9375000   0.9375000   0.4375000  )
         5           Si  tau(   5) = (   0.4375000   0.4375000   0.9375000  )
         6           Si  tau(   6) = (   0.9375000   0.4375000   0.9375000  )
         7           Si  tau(   7) = (   0.4375000   0.9375000   0.9375000  )
         8           Si  tau(   8) = (   0.9395536   0.9395536   0.9375000  )
         9           Si  tau(   9) = (   0.4375000   0.1875000   0.1875000  )
        10           Si  tau(  10) = (   0.9375000   0.1875000   0.1875000  )
        11           Si  tau(  11) = (   0.4375000   0.6875000   0.1875000  )
        12           Si  tau(  12) = (   0.9375000   0.6875000   0.1875000  )
        13           Si  tau(  13) = (   0.4375000   0.1875000   0.6875000  )
        14           Si  tau(  14) = (   0.9375000   0.1875000   0.6875000  )
        15           Si  tau(  15) = (   0.4375000   0.6875000   0.6875000  )
        16           Si  tau(  16) = (   0.9375000   0.6875000   0.6875000  )
        17           Si  tau(  17) = (   0.1875000   0.4375000   0.1875000  )
        18           Si  tau(  18) = (   0.6875000   0.4375000   0.1875000  )
        19           Si  tau(  19) = (   0.1875000   0.9375000   0.1875000  )
        20           Si  tau(  20) = (   0.6875000   0.9375000   0.1875000  )
        21           Si  tau(  21) = (   0.1875000   0.4375000   0.6875000  )
        22           Si  tau(  22) = (   0.6875000   0.4375000   0.6875000  )
        23           Si  tau(  23) = (   0.1875000   0.9375000   0.6875000  )
        24           Si  tau(  24) = (   0.6875000   0.9375000   0.6875000  )
        25           Si  tau(  25) = (   0.1875000   0.1875000   0.4375000  )
        26           Si  tau(  26) = (   0.6875000   0.1875000   0.4375000  )
        27           Si  tau(  27) = (   0.1875000   0.6875000   0.4375000  )
        28           Si  tau(  28) = (   0.6875000   0.6875000   0.4375000  )
        29           Si  tau(  29) = (   0.1875000   0.1875000   0.9375000  )
        30           Si  tau(  30) = (   0.6875000   0.1875000   0.9375000  )
        31           Si  tau(  31) = (   0.1875000   0.6875000   0.9375000  )
        32           Si  tau(  32) = (   0.6875000   0.6875000   0.9375000  )
        33           Si  tau(  33) = (   0.0625000   0.0625000   0.0625000  )
        34           Si  tau(  34) = (   0.5625000   0.0625000   0.0625000  )
        35           Si  tau(  35) = (   0.0625000   0.5625000   0.0625000  )
        36           Si  tau(  36) = (   0.5625000   0.5625000   0.0625000  )
        37           Si  tau(  37) = (   0.0625000   0.0625000   0.5625000  )
        38           Si  tau(  38) = (   0.5625000   0.0625000   0.5625000  )
        39           Si  tau(  39) = (   0.0625000   0.5625000   0.5625000  )
        40           Si  tau(  40) = (   0.5625000   0.5625000   0.5625000  )
        41           Si  tau(  41) = (   0.0625000   0.3125000   0.3125000  )
        42           Si  tau(  42) = (   0.5625000   0.3125000   0.3125000  )
        43           Si  tau(  43) = (   0.0625000   0.8125000   0.3125000  )
        44           Si  tau(  44) = (   0.5625000   0.8125000   0.3125000  )
        45           Si  tau(  45) = (   0.0625000   0.3125000   0.8125000  )
        46           Si  tau(  46) = (   0.5625000   0.3125000   0.8125000  )
        47           Si  tau(  47) = (   0.0625000   0.8125000   0.8125000  )
        48           Si  tau(  48) = (   0.5625000   0.8125000   0.8125000  )
        49           Si  tau(  49) = (   0.3125000   0.0625000   0.3125000  )
        50           Si  tau(  50) = (   0.8125000   0.0625000   0.3125000  )
        51           Si  tau(  51) = (   0.3125000   0.5625000   0.3125000  )
        52           Si  tau(  52) = (   0.8125000   0.5625000   0.3125000  )
        53           Si  tau(  53) = (   0.3125000   0.0625000   0.8125000  )
        54           Si  tau(  54) = (   0.8125000   0.0625000   0.8125000  )
        55           Si  tau(  55) = (   0.3125000   0.5625000   0.8125000  )
        56           Si  tau(  56) = (   0.8125000   0.5625000   0.8125000  )
        57           Si  tau(  57) = (   0.3125000   0.3125000   0.0625000  )
        58           Si  tau(  58) = (   0.8125000   0.3125000   0.0625000  )
        59           Si  tau(  59) = (   0.3125000   0.8125000   0.0625000  )
        60           Si  tau(  60) = (   0.8125000   0.8125000   0.0625000  )
        61           Si  tau(  61) = (   0.3125000   0.3125000   0.5625000  )
        62           Si  tau(  62) = (   0.8125000   0.3125000   0.5625000  )
        63           Si  tau(  63) = (   0.3125000   0.8125000   0.5625000  )
        64           Si  tau(  64) = (   0.8125000   0.8125000   0.5625000  )

     number of k points=     4  gaussian smearing, width (Ry)=  0.0100
                       cart. coord. in units 2pi/alat
        k(    1) = (   0.2500000   0.2500000   0.2500000), wk =   0.5000000
        k(    2) = (  -0.2500000  -0.2500000   0.2500000), wk =   0.5000000
        k(    3) = (  -0.2500000   0.2500000  -0.2500000), wk =   0.5000000
        k(    4) = (   0.2500000  -0.2500000  -0.2500000), wk =   0.5000000

     Dense  grid:   421349 G-vectors     FFT dimensions: (  96,  96,  96)

     Estimated max dynamical RAM per process >       2.05 GB

     Estimated total dynamical RAM >       4.11 GB

     Check: negative/imaginary core charge=   -0.000001    0.000000

     Initial potential from superposition of free atoms

     starting charge  255.96421, renormalised to  256.00000
     Starting wfcs are  256 randomized atomic wfcs

     total cpu time spent up to now is       43.4 secs

     Self-consistent Calculation

     iteration #  1     ecut=    50.00 Ry     beta= 0.70
     Davidson diagonalization with overlap
     ethr =  1.00E-02,  avg # of iterations =  3.0

     Threshold (ethr) on eigenvalues was too large:
     Diagonalizing with lowered threshold

     Davidson diagonalization with overlap
     ethr =  6.78E-04,  avg # of iterations =  2.0

     total cpu time spent up to now is      213.6 secs

     total energy              =    -730.80278081 Ry
     Harris-Foulkes estimate   =    -731.20887826 Ry
     estimated scf accuracy    <       1.72046191 Ry

     iteration #  2     ecut=    50.00 Ry     beta= 0.70
     Davidson diagonalization with overlap
     ethr =  6.72E-04,  avg # of iterations =  1.0

     total cpu time spent up to now is      287.0 secs

     total energy              =    -730.86487241 Ry
     Harris-Foulkes estimate   =    -730.87085219 Ry
     estimated scf accuracy    <       0.08014065 Ry

     iteration #  3     ecut=    50.00 Ry     beta= 0.70
     Davidson diagonalization with overlap
     ethr =  3.13E-05,  avg # of iterations = 10.2

     total cpu time spent up to now is      413.7 secs

     total energy              =    -730.87930029 Ry
     Harris-Foulkes estimate   =    -730.88059945 Ry
     estimated scf accuracy    <       0.00280413 Ry

     iteration #  4     ecut=    50.00 Ry     beta= 0.70
     Davidson diagonalization with overlap
     ethr =  1.10E-06,  avg # of iterations =  4.2

     total cpu time spent up to now is      526.5 secs

     total energy              =    -730.87959156 Ry
     Harris-Foulkes estimate   =    -730.88069363 Ry
     estimated scf accuracy    <       0.00311749 Ry

     iteration #  5     ecut=    50.00 Ry     beta= 0.70
     Davidson diagonalization with overlap
     ethr =  1.10E-06,  avg # of iterations =  2.0

     total cpu time spent up to now is      608.7 secs

     total energy              =    -730.87999386 Ry
     Harris-Foulkes estimate   =    -730.88008417 Ry
     estimated scf accuracy    <       0.00024525 Ry

     iteration #  6     ecut=    50.00 Ry     beta= 0.70
     Davidson diagonalization with overlap
     ethr =  9.58E-08,  avg # of iterations =  3.0

     total cpu time spent up to now is      699.6 secs

     total energy              =    -730.88001289 Ry
     Harris-Foulkes estimate   =    -730.88004340 Ry
     estimated scf accuracy    <       0.00008494 Ry

     iteration #  7     ecut=    50.00 Ry     beta= 0.70
     Davidson diagonalization with overlap
     ethr =  3.32E-08,  avg # of iterations =  2.0

     total cpu time spent up to now is      783.0 secs

     total energy              =    -730.88002494 Ry
     Harris-Foulkes estimate   =    -730.88002520 Ry
     estimated scf accuracy    <       0.00000271 Ry

     iteration #  8     ecut=    50.00 Ry     beta= 0.70
     Davidson diagonalization with overlap
     ethr =  1.06E-09,  avg # of iterations =  3.0

     total cpu time spent up to now is      930.5 secs

     total energy              =    -730.88002555 Ry
     Harris-Foulkes estimate   =    -730.88002599 Ry
     estimated scf accuracy    <       0.00000185 Ry

     iteration #  9     ecut=    50.00 Ry     beta= 0.70
     Davidson diagonalization with overlap
     ethr =  7.22E-10,  avg # of iterations =  2.0

     total cpu time spent up to now is     1046.8 secs

     total energy              =    -730.88002546 Ry
     Harris-Foulkes estimate   =    -730.88002567 Ry
     estimated scf accuracy    <       0.00000065 Ry

     iteration # 10     ecut=    50.00 Ry     beta= 0.70
     Davidson diagonalization with overlap
     ethr =  2.53E-10,  avg # of iterations =  2.0

     total cpu time spent up to now is     1165.2 secs

     total energy              =    -730.88002547 Ry
     Harris-Foulkes estimate   =    -730.88002552 Ry
     estimated scf accuracy    <       0.00000011 Ry

     iteration # 11     ecut=    50.00 Ry     beta= 0.70
     Davidson diagonalization with overlap
     ethr =  4.38E-11,  avg # of iterations =  3.0

     total cpu time spent up to now is     1303.3 secs

     total energy              =    -730.88002549 Ry
     Harris-Foulkes estimate   =    -730.88002549 Ry
     estimated scf accuracy    <       0.00000002 Ry

     iteration # 12     ecut=    50.00 Ry     beta= 0.70
     Davidson diagonalization with overlap
     ethr =  7.43E-12,  avg # of iterations =  5.8

     total cpu time spent up to now is     1449.5 secs

     End of self-consistent calculation

          k = 0.2500 0.2500 0.2500 ( 52563 PWs)   bands (ev):

    -5.6274  -5.1037  -5.0985  -5.0962  -4.6043  -4.5993  -4.5970  -4.1660
    -4.0708  -4.0664  -4.0633  -3.6641  -3.6519  -3.6516  -3.6503  -3.6497
    -3.6446  -3.4661  -3.4586  -3.4560  -2.9652  -2.9620  -2.9563  -2.6004
    -2.5933  -2.5903  -2.4380  -2.4269  -2.4262  -2.4248  -2.4242  -2.4186
    -0.8938  -0.8846  -0.8841  -0.8828  -0.8814  -0.8745  -0.7908  -0.7844
    -0.7812  -0.6708  -0.6669  -0.6599  -0.5996  -0.5821  -0.5801   0.1157
     0.1977   0.2039   0.2043   0.2055   0.2094   0.2175   1.0668   1.0792
     1.0824   1.4072   1.4128   1.4159   2.0167   2.0203   2.0215   2.0229
     2.0257   2.0288   2.0788   2.0831   2.0866   2.6273   2.6321   2.6332
     2.7320   2.7340   2.7361   2.7367   2.7444   2.7456   2.7888   2.7929
     2.7963   3.0922   3.0981   3.1011   3.1016   3.1031   3.1062   3.3646
     3.3656   3.3690   3.3766   3.3812   3.3841   3.7204   3.7270   3.7294
     3.7392   3.7478   3.7501   3.8313   3.8330   3.8373   4.0892   4.1019
     4.1066   4.1074   4.1083   4.1094   4.1456   4.1470   4.1525   4.4022
     4.4644   4.4651   4.4702   4.7068   4.7080   4.7142   4.7568   4.7707
     4.7717   4.9270   4.9348   5.2365   5.2374   5.2457   5.7157   5.7243
     6.9279   6.9342   6.9350   7.3667   7.3714   7.3764   7.5986   7.8538
     7.8587   7.8625   7.9806   7.9827   7.9899   8.1418   8.1447   8.1484
     8.1630   8.1653   8.1702   8.3857   8.3885   8.3969   8.3975   8.3980
     8.4023   8.4466

          k =-0.2500-0.2500 0.2500 ( 52563 PWs)   bands (ev):

    -5.6275  -5.1025  -5.0999  -5.0951  -4.6036  -4.6009  -4.5964  -4.1686
    -4.0710  -4.0681  -4.0638  -3.6587  -3.6530  -3.6524  -3.6510  -3.6507
    -3.6391  -3.4629  -3.4601  -3.4527  -2.9707  -2.9647  -2.9616  -2.5980
    -2.5952  -2.5882  -2.4339  -2.4278  -2.4272  -2.4259  -2.4252  -2.4141
    -0.8943  -0.8870  -0.8851  -0.8839  -0.8834  -0.8748  -0.7921  -0.7883
    -0.7823  -0.6755  -0.6694  -0.6655  -0.5843  -0.5822  -0.5640   0.1248
     0.1918   0.1997   0.2035   0.2047   0.2051   0.2116   1.0757   1.0790
     1.0914   1.4079   1.4111   1.4166   2.0162   2.0192   2.0222   2.0236
     2.0246   2.0282   2.0764   2.0798   2.0841   2.6333   2.6344   2.6391
     2.7275   2.7285   2.7364   2.7370   2.7391   2.7412   2.7831   2.7871
     2.7913   3.0952   3.0982   3.0995   3.1001   3.1031   3.1087   3.3607
     3.3645   3.3652   3.3743   3.3770   3.3817   3.7267   3.7290   3.7351
     3.7490   3.7512   3.7603   3.8274   3.8317   3.8340   4.1050   4.1062
     4.1066   4.1075   4.1118   4.1248   4.1413   4.1457   4.1491   4.4121
     4.4568   4.4629   4.4632   4.7007   4.7064   4.7075   4.7721   4.7731
     4.7888   4.9242   4.9315   5.2272   5.2355   5.2367   5.7101   5.7183
     6.9256   6.9263   6.9328   7.3646   7.3698   7.3745   7.5949   7.8502
     7.8539   7.8589   7.9823   7.9895   7.9917   8.1395   8.1442   8.1476
     8.1609   8.1653   8.1668   8.3917   8.3961   8.3964   8.3971   8.4050
     8.4081   8.4410

          k =-0.2500 0.2500-0.2500 ( 52563 PWs)   bands (ev):

    -5.6275  -5.1039  -5.1001  -5.0937  -4.6049  -4.6011  -4.5948  -4.1676
    -4.0723  -4.0683  -4.0619  -3.6618  -3.6544  -3.6518  -3.6513  -3.6508
    -3.6368  -3.4638  -3.4607  -3.4525  -2.9701  -2.9647  -2.9585  -2.5994
    -2.5958  -2.5869  -2.4361  -2.4293  -2.4266  -2.4263  -2.4254  -2.4119
    -0.8964  -0.8884  -0.8845  -0.8841  -0.8835  -0.8698  -0.7928  -0.7885
    -0.7794  -0.6755  -0.6694  -0.6614  -0.5842  -0.5814  -0.5744   0.1221
     0.1911   0.1988   0.2039   0.2049   0.2052   0.2188   1.0755   1.0789
     1.0865   1.4076   1.4105   1.4177   2.0167   2.0186   2.0221   2.0229
     2.0256   2.0289   2.0784   2.0793   2.0848   2.6314   2.6334   2.6378
     2.7279   2.7308   2.7363   2.7368   2.7408   2.7429   2.7834   2.7879
     2.7947   3.0926   3.0976   3.1000   3.1008   3.1027   3.1105   3.3609
     3.3648   3.3674   3.3741   3.3771   3.3841   3.7253   3.7276   3.7337
     3.7475   3.7499   3.7566   3.8271   3.8322   3.8365   4.1021   4.1045
     4.1067   4.1071   4.1116   4.1177   4.1408   4.1461   4.1523   4.4089
     4.4580   4.4635   4.4664   4.7010   4.7071   4.7104   4.7714   4.7725
     4.7803   4.9235   4.9343   5.2278   5.2361   5.2414   5.7099   5.7221
     6.9251   6.9285   6.9346   7.3626   7.3709   7.3768   7.5959   7.8490
     7.8557   7.8615   7.9805   7.9884   7.9918   8.1379   8.1458   8.1482
     8.1606   8.1648   8.1695   8.3886   8.3952   8.3971   8.4009   8.4060
     8.4426   8.6519

          k = 0.2500-0.2500-0.2500 ( 52563 PWs)   bands (ev):

    -5.6274  -5.1050  -5.0983  -5.0948  -4.6058  -4.5991  -4.5957  -4.1665
    -4.0729  -4.0662  -4.0623  -3.6663  -3.6518  -3.6512  -3.6508  -3.6483
    -3.6414  -3.4663  -3.4579  -3.4549  -2.9685  -2.9621  -2.9570  -2.6015
    -2.5927  -2.5889  -2.4404  -2.4268  -2.4258  -2.4255  -2.4227  -2.4162
    -0.8993  -0.8844  -0.8839  -0.8835  -0.8799  -0.8727  -0.7936  -0.7843
    -0.7802  -0.6741  -0.6670  -0.6599  -0.5897  -0.5830  -0.5803   0.1183
     0.1904   0.2038   0.2041   0.2051   0.2104   0.2181   1.0715   1.0794
     1.0826   1.4062   1.4134   1.4163   2.0161   2.0193   2.0223   2.0230
     2.0264   2.0284   2.0781   2.0835   2.0845   2.6286   2.6333   2.6349
     2.7304   2.7324   2.7363   2.7369   2.7421   2.7453   2.7848   2.7921
     2.7959   3.0907   3.0984   3.1004   3.1013   3.1036   3.1087   3.3625
     3.3653   3.3690   3.3740   3.3812   3.3839   3.7217   3.7283   3.7306
     3.7431   3.7496   3.7516   3.8290   3.8325   3.8378   4.0948   4.1025
     4.1071   4.1076   4.1098   4.1116   4.1433   4.1465   4.1531   4.4048
     4.4614   4.4640   4.4694   4.7031   4.7074   4.7138   4.7660   4.7713
     4.7725   4.9246   4.9356   5.2320   5.2366   5.2451   5.7122   5.7245
     6.9259   6.9321   6.9353   7.3642   7.3703   7.3782   7.5974   7.8509
     7.8568   7.8635   7.9805   7.9841   7.9918   8.1403   8.1438   8.1494
     8.1612   8.1646   8.1713   8.3858   8.3921   8.3966   8.3975   8.3988
     8.4053   8.4450

     the Fermi energy is     6.3219 ev

!    total energy              =    -730.88002549 Ry
     Harris-Foulkes estimate   =    -730.88002549 Ry
     estimated scf accuracy    <          3.4E-09 Ry

     The total energy is the sum of the following terms:

     one-electron contribution =     160.47290933 Ry
     hartree contribution      =      35.78733043 Ry
     xc contribution           =    -393.13399403 Ry
     ewald contribution        =    -534.00627121 Ry
     smearing contrib. (-TS)   =      -0.00000000 Ry

     convergence has been achieved in  12 iterations

     Forces acting on atoms (cartesian axes, Ry/au):

     atom    1 type  1   force =    -0.01603624    0.00002017   -0.00000051
     atom    2 type  1   force =    -0.00031169   -0.00000399   -0.00000002
     atom    3 type  1   force =     0.00005151   -0.00033700    0.00000061
     atom    4 type  1   force =     0.00003343    0.00003953    0.00000051
     atom    5 type  1   force =     0.00005159   -0.00000395    0.00000089
     atom    6 type  1   force =     0.00003331    0.00001800    0.00000131
     atom    7 type  1   force =    -0.00045838    0.00003943    0.00000081
     atom    8 type  1   force =    -0.01137424   -0.01140013   -0.00061387
     atom    9 type  1   force =    -0.00052254    0.00013966    0.00005365
     atom   10 type  1   force =    -0.00029166    0.00009827    0.00008856
     atom   11 type  1   force =    -0.00051574    0.00013510   -0.00004878
     atom   12 type  1   force =    -0.00029186    0.00009404   -0.00009230
     atom   13 type  1   force =    -0.00053113   -0.00007243    0.00015734
     atom   14 type  1   force =    -0.00044878    0.00023437   -0.00023144
     atom   15 type  1   force =    -0.00053441   -0.00007588   -0.00016262
     atom   16 type  1   force =    -0.00045157    0.00023823    0.00023005
     atom   17 type  1   force =     0.00025569   -0.00010255    0.00016421
     atom   18 type  1   force =     0.00026294   -0.00010425   -0.00016931
     atom   19 type  1   force =     0.00013280   -0.00030284    0.00000300
     atom   20 type  1   force =     0.00012852   -0.00030376   -0.00000707
     atom   21 type  1   force =     0.00026873    0.00010572   -0.00017783
     atom   22 type  1   force =     0.00027579    0.00011093    0.00018203
     atom   23 type  1   force =     0.00028778   -0.00044261   -0.00016430
     atom   24 type  1   force =     0.00029118   -0.00044439    0.00016275
     atom   25 type  1   force =     0.00020822    0.00020228   -0.00009693
     atom   26 type  1   force =     0.00032357   -0.00014442   -0.00011496
     atom   27 type  1   force =     0.00031714   -0.00013896    0.00011033
     atom   28 type  1   force =     0.00021441    0.00020756    0.00010139
     atom   29 type  1   force =     0.00037655    0.00025602    0.00015170
     atom   30 type  1   force =     0.00005096    0.00008003   -0.00001108
     atom   31 type  1   force =     0.00004836    0.00008387    0.00000689
     atom   32 type  1   force =     0.00036506    0.00024486   -0.00014690
     atom   33 type  1   force =     0.00479696    0.00484765    0.00401794
     atom   34 type  1   force =     0.00027853    0.00001303    0.00008889
     atom   35 type  1   force =     0.00001140    0.00004701    0.00008590
     atom   36 type  1   force =    -0.00002104    0.00008636    0.00007703
     atom   37 type  1   force =     0.00002185    0.00001980    0.00008012
     atom   38 type  1   force =    -0.00001926    0.00023885    0.00008654
     atom   39 type  1   force =     0.00019229    0.00007658    0.00007448
     atom   40 type  1   force =     0.00396742    0.00274646    0.00277932
     atom   41 type  1   force =     0.00015256   -0.00003625   -0.00003908
     atom   42 type  1   force =     0.00392305   -0.00277077   -0.00273770
     atom   43 type  1   force =    -0.00005093   -0.00009839   -0.00002839
     atom   44 type  1   force =    -0.00005852    0.00012321   -0.00004808
     atom   45 type  1   force =    -0.00004080   -0.00006077   -0.00003388
     atom   46 type  1   force =    -0.00005685   -0.00004711   -0.00003598
     atom   47 type  1   force =     0.00085691    0.00090251    0.00001386
     atom   48 type  1   force =     0.00022674   -0.00009417   -0.00001893
     atom   49 type  1   force =    -0.00005685    0.00012573    0.00004827
     atom   50 type  1   force =    -0.00004486   -0.00010421    0.00002813
     atom   51 type  1   force =     0.00380503   -0.00254567    0.00251031
     atom   52 type  1   force =     0.00015170   -0.00003644    0.00003696
     atom   53 type  1   force =     0.00022115   -0.00009558    0.00001893
     atom   54 type  1   force =     0.00091388    0.00084574    0.00007581
     atom   55 type  1   force =    -0.00005523   -0.00004793    0.00003765
     atom   56 type  1   force =    -0.00003706   -0.00006023    0.00003609
     atom   57 type  1   force =    -0.00001719    0.00009011   -0.00007678
     atom   58 type  1   force =     0.00001526    0.00004893   -0.00008840
     atom   59 type  1   force =     0.00027402    0.00001455   -0.00008991
     atom   60 type  1   force =     0.00439537    0.00444533   -0.00347660
     atom   61 type  1   force =     0.00384603    0.00251803   -0.00255408
     atom   62 type  1   force =     0.00019232    0.00007748   -0.00007609
     atom   63 type  1   force =    -0.00001621    0.00023811   -0.00008929
     atom   64 type  1   force =     0.00002301    0.00002112   -0.00008117

     Total force =     0.027490     Total SCF correction =     0.000109

     Writing output data file pwscf.save/
 
     init_run     :     38.44s CPU     42.98s WALL (       1 calls)
     electrons    :   1105.24s CPU   1406.18s WALL (       1 calls)
     forces       :     20.45s CPU     23.53s WALL (       1 calls)

     Called by init_run:
     wfcinit      :     37.12s CPU     41.31s WALL (       1 calls)
     potinit      :      0.25s CPU      0.30s WALL (       1 calls)
     hinit0       :      0.35s CPU      0.38s WALL (       1 calls)

     Called by electrons:
     c_bands      :    939.45s CPU   1185.25s WALL (      13 calls)
     sum_band     :    151.29s CPU    198.92s WALL (      13 calls)
     v_of_rho     :      3.58s CPU      4.27s WALL (      13 calls)
     newd         :     10.59s CPU     17.24s WALL (      13 calls)
     mix_rho      :      1.06s CPU      1.47s WALL (      13 calls)

     Called by c_bands:
     init_us_2    :     12.33s CPU     15.13s WALL (     112 calls)
     cegterg      :    849.15s CPU   1074.24s WALL (      52 calls)

     Called by sum_band:
     sum_band:bec :      0.07s CPU      0.07s WALL (      52 calls)
     addusdens    :     11.67s CPU     18.33s WALL (      13 calls)

     Called by *egterg:
     h_psi        :    618.91s CPU    778.12s WALL (     229 calls)
     s_psi        :    126.23s CPU    152.85s WALL (     229 calls)
     g_psi        :      1.07s CPU      1.32s WALL (     173 calls)
     cdiaghg      :     11.28s CPU     13.69s WALL (     221 calls)

     Called by h_psi:
     h_psi:pot    :    616.86s CPU    772.99s WALL (     229 calls)
     h_psi:calbec :    130.14s CPU    159.89s WALL (     229 calls)
     vloc_psi     :    360.23s CPU    459.76s WALL (     229 calls)
     add_vuspsi   :    126.49s CPU    153.34s WALL (     229 calls)

     General routines
     calbec       :    191.46s CPU    237.23s WALL (     297 calls)
     fft          :      3.29s CPU      4.26s WALL (     156 calls)
     ffts         :      0.20s CPU      0.26s WALL (      13 calls)
     fftw         :    362.29s CPU    471.85s WALL (   50830 calls)
 
     Parallel routines
     fft_scatt_xy :     71.91s CPU     83.85s WALL (   50999 calls)
     fft_scatt_yz :     98.42s CPU    161.53s WALL (   50999 calls)
 
     PWSCF        : 19m24.72s CPU    24m33.63s WALL

 
   This run was terminated on:  22:27:35  13Feb2020            

=------------------------------------------------------------------------------=
   JOB DONE.
=------------------------------------------------------------------------------=
