
     Program PWSCF v.6.3MaX starts on 13Feb2020 at 14:38:34 

     This program is part of the open-source Quantum ESPRESSO suite
     for quantum simulation of materials; please cite
         "P. Giannozzi et al., J. Phys.:Condens. Matter 21 395502 (2009);
         "P. Giannozzi et al., J. Phys.:Condens. Matter 29 465901 (2017);
          URL http://www.quantum-espresso.org", 
     in publications or presentations arising from this work. More details at
     http://www.quantum-espresso.org/quote

     Parallel version (MPI), running on     4 processors

     MPI processes distributed on     1 nodes
     R & G space division:  proc/nbgrp/npool/nimage =       4
     Waiting for input...
     Reading input from standard input

     Current dimensions of program PWSCF are:
     Max number of different atomic species (ntypx) = 10
     Max number of k-points (npk) =  40000
     Max angular momentum in pseudopotentials (lmaxx) =  3

     Subspace diagonalization in iterative solution of the eigenvalue problem:
     a serial algorithm will be used

 
     Parallelization info
     --------------------
     sticks:   dense  smooth     PW     G-vecs:    dense   smooth      PW
     Min        1695    1695    439               105337   105337   13877
     Max        1697    1697    440               105338   105338   13880
     Sum        6785    6785   1757               421349   421349   55515
 


     bravais-lattice index     =            0
     lattice parameter (alat)  =      20.6591  a.u.
     unit-cell volume          =    8817.2783 (a.u.)^3
     number of atoms/cell      =           64
     number of atomic types    =            1
     number of electrons       =       256.00
     number of Kohn-Sham states=          154
     kinetic-energy cutoff     =      50.0000  Ry
     charge density cutoff     =     200.0000  Ry
     convergence threshold     =      1.0E-08
     mixing beta               =       0.7000
     number of iterations used =            8  plain     mixing
     Exchange-correlation      = PBE ( 1  4  3  4 0 0)

     celldm(1)=  20.659106  celldm(2)=   0.000000  celldm(3)=   0.000000
     celldm(4)=   0.000000  celldm(5)=   0.000000  celldm(6)=   0.000000

     crystal axes: (cart. coord. in units of alat)
               a(1) = (   1.000000   0.000000   0.000000 )  
               a(2) = (   0.000000   1.000000   0.000000 )  
               a(3) = (   0.000000   0.000000   1.000000 )  

     reciprocal axes: (cart. coord. in units 2 pi/alat)
               b(1) = (  1.000000  0.000000  0.000000 )  
               b(2) = (  0.000000  1.000000  0.000000 )  
               b(3) = (  0.000000  0.000000  1.000000 )  


     PseudoPot. # 1 for Si read from file:
     ~/kedar/softwares/SSSP_precision_pseudos/Si.pbe-n-rrkjus_psl.1.0.0.UPF
     MD5 check sum: Not computed, couldn't open file
     Pseudo is Ultrasoft + core correction, Zval =  4.0
     Generated using "atomic" code by A. Dal Corso v.5.1
     Using radial grid of 1141 points,  6 beta functions with: 
                l(1) =   0
                l(2) =   0
                l(3) =   1
                l(4) =   1
                l(5) =   2
                l(6) =   2
     Q(r) pseudized with 0 coefficients 


     atomic species   valence    mass     pseudopotential
        Si             4.00    28.08550     Si( 1.00)

      4 Sym. Ops. (no inversion) found ( 2 have fractional translation)



   Cartesian axes

     site n.     atom                  positions (alat units)
         1           Si  tau(   1) = (   0.4404043   0.4375000   0.4375000  )
         2           Si  tau(   2) = (   0.9375000   0.4375000   0.4375000  )
         3           Si  tau(   3) = (   0.4375000   0.9375000   0.4375000  )
         4           Si  tau(   4) = (   0.9375000   0.9375000   0.4375000  )
         5           Si  tau(   5) = (   0.4375000   0.4375000   0.9375000  )
         6           Si  tau(   6) = (   0.9375000   0.4375000   0.9375000  )
         7           Si  tau(   7) = (   0.4375000   0.9375000   0.9375000  )
         8           Si  tau(   8) = (   0.9375000   0.9375000   0.9375000  )
         9           Si  tau(   9) = (   0.4375000   0.1875000   0.1875000  )
        10           Si  tau(  10) = (   0.9375000   0.1875000   0.1875000  )
        11           Si  tau(  11) = (   0.4375000   0.6875000   0.1875000  )
        12           Si  tau(  12) = (   0.9375000   0.6875000   0.1875000  )
        13           Si  tau(  13) = (   0.4375000   0.1875000   0.6875000  )
        14           Si  tau(  14) = (   0.9375000   0.1875000   0.6875000  )
        15           Si  tau(  15) = (   0.4375000   0.6875000   0.6875000  )
        16           Si  tau(  16) = (   0.9375000   0.6875000   0.6875000  )
        17           Si  tau(  17) = (   0.1875000   0.4375000   0.1875000  )
        18           Si  tau(  18) = (   0.6875000   0.4375000   0.1875000  )
        19           Si  tau(  19) = (   0.1875000   0.9375000   0.1875000  )
        20           Si  tau(  20) = (   0.6875000   0.9375000   0.1875000  )
        21           Si  tau(  21) = (   0.1875000   0.4375000   0.6875000  )
        22           Si  tau(  22) = (   0.6875000   0.4375000   0.6875000  )
        23           Si  tau(  23) = (   0.1875000   0.9375000   0.6875000  )
        24           Si  tau(  24) = (   0.6875000   0.9375000   0.6875000  )
        25           Si  tau(  25) = (   0.1875000   0.1875000   0.4375000  )
        26           Si  tau(  26) = (   0.6875000   0.1875000   0.4375000  )
        27           Si  tau(  27) = (   0.1875000   0.6875000   0.4375000  )
        28           Si  tau(  28) = (   0.6875000   0.6875000   0.4375000  )
        29           Si  tau(  29) = (   0.1875000   0.1875000   0.9375000  )
        30           Si  tau(  30) = (   0.6875000   0.1875000   0.9375000  )
        31           Si  tau(  31) = (   0.1875000   0.6875000   0.9375000  )
        32           Si  tau(  32) = (   0.6875000   0.6875000   0.9375000  )
        33           Si  tau(  33) = (   0.0625000   0.0625000   0.0625000  )
        34           Si  tau(  34) = (   0.5625000   0.0625000   0.0625000  )
        35           Si  tau(  35) = (   0.0625000   0.5625000   0.0625000  )
        36           Si  tau(  36) = (   0.5625000   0.5625000   0.0625000  )
        37           Si  tau(  37) = (   0.0625000   0.0625000   0.5625000  )
        38           Si  tau(  38) = (   0.5625000   0.0625000   0.5625000  )
        39           Si  tau(  39) = (   0.0625000   0.5625000   0.5625000  )
        40           Si  tau(  40) = (   0.5625000   0.5625000   0.5625000  )
        41           Si  tau(  41) = (   0.0625000   0.3125000   0.3125000  )
        42           Si  tau(  42) = (   0.5625000   0.3125000   0.3125000  )
        43           Si  tau(  43) = (   0.0625000   0.8125000   0.3125000  )
        44           Si  tau(  44) = (   0.5625000   0.8125000   0.3125000  )
        45           Si  tau(  45) = (   0.0625000   0.3125000   0.8125000  )
        46           Si  tau(  46) = (   0.5625000   0.3125000   0.8125000  )
        47           Si  tau(  47) = (   0.0625000   0.8125000   0.8125000  )
        48           Si  tau(  48) = (   0.5625000   0.8125000   0.8125000  )
        49           Si  tau(  49) = (   0.3125000   0.0625000   0.3125000  )
        50           Si  tau(  50) = (   0.8125000   0.0625000   0.3125000  )
        51           Si  tau(  51) = (   0.3125000   0.5625000   0.3125000  )
        52           Si  tau(  52) = (   0.8125000   0.5625000   0.3125000  )
        53           Si  tau(  53) = (   0.3125000   0.0625000   0.8125000  )
        54           Si  tau(  54) = (   0.8125000   0.0625000   0.8125000  )
        55           Si  tau(  55) = (   0.3125000   0.5625000   0.8125000  )
        56           Si  tau(  56) = (   0.8125000   0.5625000   0.8125000  )
        57           Si  tau(  57) = (   0.3125000   0.3125000   0.0625000  )
        58           Si  tau(  58) = (   0.8125000   0.3125000   0.0625000  )
        59           Si  tau(  59) = (   0.3125000   0.8125000   0.0625000  )
        60           Si  tau(  60) = (   0.8125000   0.8125000   0.0625000  )
        61           Si  tau(  61) = (   0.3125000   0.3125000   0.5625000  )
        62           Si  tau(  62) = (   0.8125000   0.3125000   0.5625000  )
        63           Si  tau(  63) = (   0.3125000   0.8125000   0.5625000  )
        64           Si  tau(  64) = (   0.8125000   0.8125000   0.5625000  )

     number of k points=     2  gaussian smearing, width (Ry)=  0.0100
                       cart. coord. in units 2pi/alat
        k(    1) = (   0.2500000   0.2500000   0.2500000), wk =   1.0000000
        k(    2) = (   0.2500000   0.2500000  -0.2500000), wk =   1.0000000

     Dense  grid:   421349 G-vectors     FFT dimensions: (  96,  96,  96)

     Estimated max dynamical RAM per process >     992.22 MB

     Estimated total dynamical RAM >       3.88 GB

     Check: negative/imaginary core charge=   -0.000001    0.000000

     Initial potential from superposition of free atoms

     starting charge  255.96421, renormalised to  256.00000
     Starting wfcs are  256 randomized atomic wfcs

     total cpu time spent up to now is       12.0 secs

     Self-consistent Calculation

     iteration #  1     ecut=    50.00 Ry     beta= 0.70
     Davidson diagonalization with overlap
     ethr =  1.00E-02,  avg # of iterations =  3.0

     Threshold (ethr) on eigenvalues was too large:
     Diagonalizing with lowered threshold

     Davidson diagonalization with overlap
     ethr =  6.78E-04,  avg # of iterations =  2.0

     total cpu time spent up to now is       57.1 secs

     total energy              =    -730.80371623 Ry
     Harris-Foulkes estimate   =    -731.20987035 Ry
     estimated scf accuracy    <       1.72070410 Ry

     iteration #  2     ecut=    50.00 Ry     beta= 0.70
     Davidson diagonalization with overlap
     ethr =  6.72E-04,  avg # of iterations =  1.0

     total cpu time spent up to now is       75.5 secs

     total energy              =    -730.86556942 Ry
     Harris-Foulkes estimate   =    -730.87150625 Ry
     estimated scf accuracy    <       0.08010967 Ry

     iteration #  3     ecut=    50.00 Ry     beta= 0.70
     Davidson diagonalization with overlap
     ethr =  3.13E-05,  avg # of iterations = 10.5

     total cpu time spent up to now is      109.3 secs

     total energy              =    -730.87989684 Ry
     Harris-Foulkes estimate   =    -730.88104261 Ry
     estimated scf accuracy    <       0.00262602 Ry

     iteration #  4     ecut=    50.00 Ry     beta= 0.70
     Davidson diagonalization with overlap
     ethr =  1.03E-06,  avg # of iterations =  4.0

     total cpu time spent up to now is      137.4 secs

     total energy              =    -730.88037151 Ry
     Harris-Foulkes estimate   =    -730.88082643 Ry
     estimated scf accuracy    <       0.00129902 Ry

     iteration #  5     ecut=    50.00 Ry     beta= 0.70
     Davidson diagonalization with overlap
     ethr =  5.07E-07,  avg # of iterations =  2.0

     total cpu time spent up to now is      158.1 secs

     total energy              =    -730.88048555 Ry
     Harris-Foulkes estimate   =    -730.88056333 Ry
     estimated scf accuracy    <       0.00020536 Ry

     iteration #  6     ecut=    50.00 Ry     beta= 0.70
     Davidson diagonalization with overlap
     ethr =  8.02E-08,  avg # of iterations =  3.0

     total cpu time spent up to now is      179.5 secs

     total energy              =    -730.88050021 Ry
     Harris-Foulkes estimate   =    -730.88051847 Ry
     estimated scf accuracy    <       0.00004850 Ry

     iteration #  7     ecut=    50.00 Ry     beta= 0.70
     Davidson diagonalization with overlap
     ethr =  1.89E-08,  avg # of iterations =  2.0

     total cpu time spent up to now is      201.1 secs

     total energy              =    -730.88050840 Ry
     Harris-Foulkes estimate   =    -730.88050877 Ry
     estimated scf accuracy    <       0.00000286 Ry

     iteration #  8     ecut=    50.00 Ry     beta= 0.70
     Davidson diagonalization with overlap
     ethr =  1.12E-09,  avg # of iterations =  3.0

     total cpu time spent up to now is      224.3 secs

     total energy              =    -730.88050863 Ry
     Harris-Foulkes estimate   =    -730.88050910 Ry
     estimated scf accuracy    <       0.00000171 Ry

     iteration #  9     ecut=    50.00 Ry     beta= 0.70
     Davidson diagonalization with overlap
     ethr =  6.67E-10,  avg # of iterations =  1.0

     total cpu time spent up to now is      242.4 secs

     total energy              =    -730.88050859 Ry
     Harris-Foulkes estimate   =    -730.88050873 Ry
     estimated scf accuracy    <       0.00000042 Ry

     iteration # 10     ecut=    50.00 Ry     beta= 0.70
     Davidson diagonalization with overlap
     ethr =  1.65E-10,  avg # of iterations =  2.0

     total cpu time spent up to now is      261.8 secs

     total energy              =    -730.88050860 Ry
     Harris-Foulkes estimate   =    -730.88050863 Ry
     estimated scf accuracy    <       0.00000008 Ry

     iteration # 11     ecut=    50.00 Ry     beta= 0.70
     Davidson diagonalization with overlap
     ethr =  3.25E-11,  avg # of iterations =  2.0

     total cpu time spent up to now is      282.9 secs

     total energy              =    -730.88050861 Ry
     Harris-Foulkes estimate   =    -730.88050861 Ry
     estimated scf accuracy    <       0.00000001 Ry

     iteration # 12     ecut=    50.00 Ry     beta= 0.70
     Davidson diagonalization with overlap
     ethr =  4.39E-12,  avg # of iterations =  3.0

     total cpu time spent up to now is      305.6 secs

     End of self-consistent calculation

          k = 0.2500 0.2500 0.2500 ( 52563 PWs)   bands (ev):

    -5.6273  -5.1021  -5.0984  -5.0974  -4.6029  -4.5992  -4.5983  -4.1664
    -4.0699  -4.0664  -4.0650  -3.6592  -3.6516  -3.6513  -3.6507  -3.6487
    -3.6479  -3.4631  -3.4581  -3.4579  -2.9653  -2.9623  -2.9597  -2.5982
    -2.5928  -2.5924  -2.4334  -2.4265  -2.4260  -2.4255  -2.4228  -2.4228
    -0.8914  -0.8842  -0.8839  -0.8835  -0.8801  -0.8800  -0.7896  -0.7844
    -0.7838  -0.6707  -0.6673  -0.6638  -0.5894  -0.5823  -0.5811   0.1183
     0.1984   0.2042   0.2044   0.2050   0.2092   0.2107   1.0736   1.0793
     1.0808   1.4090   1.4131   1.4138   2.0189   2.0214   2.0225   2.0227
     2.0241   2.0258   2.0800   2.0827   2.0836   2.6304   2.6333   2.6335
     2.7340   2.7343   2.7366   2.7366   2.7400   2.7413   2.7882   2.7919
     2.7935   3.0954   3.0998   3.1007   3.1011   3.1019   3.1043   3.3643
     3.3653   3.3670   3.3768   3.3812   3.3814   3.7239   3.7281   3.7287
     3.7450   3.7494   3.7500   3.8312   3.8326   3.8353   4.0989   4.1045
     4.1071   4.1077   4.1078   4.1090   4.1453   4.1465   4.1497   4.4046
     4.4638   4.4641   4.4673   4.7063   4.7075   4.7111   4.7656   4.7714
     4.7719   4.9273   4.9323   5.2354   5.2367   5.2416   5.7154   5.7211
     6.9285   6.9322   6.9329   7.3680   7.3706   7.3745   7.5976   7.8544
     7.8571   7.8602   7.9834   7.9842   7.9887   8.1436   8.1444   8.1477
     8.1632   8.1648   8.1679   8.3906   8.3933   8.3970   8.3970   8.3977
     8.4002   8.4452

          k = 0.2500 0.2500-0.2500 ( 52563 PWs)   bands (ev):

    -5.6274  -5.1011  -5.0999  -5.0965  -4.6021  -4.6009  -4.5975  -4.1674
    -4.0695  -4.0681  -4.0648  -3.6548  -3.6540  -3.6518  -3.6512  -3.6510
    -3.6437  -3.4608  -3.4606  -3.4554  -2.9672  -2.9644  -2.9615  -2.5960
    -2.5957  -2.5906  -2.4293  -2.4291  -2.4266  -2.4261  -2.4256  -2.4185
    -0.8885  -0.8882  -0.8844  -0.8839  -0.8837  -0.8773  -0.7891  -0.7883
    -0.7831  -0.6722  -0.6692  -0.6656  -0.5833  -0.5820  -0.5745   0.1221
     0.1988   0.1998   0.2041   0.2047   0.2048   0.2107   1.0773   1.0790
     1.0846   1.4100   1.4109   1.4149   2.0190   2.0210   2.0224   2.0227
     2.0238   2.0259   2.0794   2.0802   2.0834   2.6332   2.6335   2.6363
     2.7315   2.7324   2.7366   2.7366   2.7387   2.7390   2.7868   2.7882
     2.7918   3.0971   3.0994   3.1001   3.1006   3.1014   3.1057   3.3623
     3.3649   3.3657   3.3771   3.3774   3.3812   3.7273   3.7278   3.7314
     3.7492   3.7502   3.7548   3.8295   3.8322   3.8338   4.1055   4.1067
     4.1068   4.1072   4.1098   4.1154   4.1431   4.1461   4.1484   4.4087
     4.4603   4.4635   4.4644   4.7036   4.7071   4.7081   4.7719   4.7725
     4.7791   4.9260   4.9311   5.2315   5.2361   5.2377   5.7130   5.7186
     6.9277   6.9285   6.9322   7.3667   7.3708   7.3733   7.5960   7.8525
     7.8558   7.8585   7.9835   7.9883   7.9888   8.1419   8.1459   8.1465
     8.1623   8.1649   8.1665   8.3930   8.3963   8.3969   8.3970   8.4006
     8.4029   8.4429

     the Fermi energy is     6.3211 ev

!    total energy              =    -730.88050861 Ry
     Harris-Foulkes estimate   =    -730.88050861 Ry
     estimated scf accuracy    <          1.2E-09 Ry

     The total energy is the sum of the following terms:

     one-electron contribution =     160.47491050 Ry
     hartree contribution      =      35.78644731 Ry
     xc contribution           =    -393.13390989 Ry
     ewald contribution        =    -534.00795653 Ry
     smearing contrib. (-TS)   =      -0.00000000 Ry

     convergence has been achieved in  12 iterations

     Forces acting on atoms (cartesian axes, Ry/au):

     atom    1 type  1   force =    -0.01605442    0.00000000    0.00000000
     atom    2 type  1   force =     0.00002485    0.00000000    0.00000000
     atom    3 type  1   force =     0.00005493    0.00000000    0.00000000
     atom    4 type  1   force =    -0.00000680    0.00000000    0.00000000
     atom    5 type  1   force =     0.00005493    0.00000000    0.00000000
     atom    6 type  1   force =    -0.00000680    0.00000000    0.00000000
     atom    7 type  1   force =    -0.00047523    0.00000000    0.00000000
     atom    8 type  1   force =     0.00002565    0.00000000    0.00000000
     atom    9 type  1   force =    -0.00053051    0.00011424    0.00011424
     atom   10 type  1   force =     0.00000130    0.00000974    0.00000974
     atom   11 type  1   force =    -0.00052573    0.00010986   -0.00010986
     atom   12 type  1   force =     0.00000257    0.00000899   -0.00000899
     atom   13 type  1   force =    -0.00052573   -0.00010986    0.00010986
     atom   14 type  1   force =     0.00000257   -0.00000899    0.00000899
     atom   15 type  1   force =    -0.00053051   -0.00011424   -0.00011424
     atom   16 type  1   force =     0.00000130   -0.00000974   -0.00000974
     atom   17 type  1   force =     0.00023064   -0.00010982    0.00022509
     atom   18 type  1   force =     0.00023778   -0.00011404   -0.00022909
     atom   19 type  1   force =     0.00004428   -0.00000960   -0.00007654
     atom   20 type  1   force =     0.00004377   -0.00000982    0.00007525
     atom   21 type  1   force =     0.00023064    0.00010982   -0.00022509
     atom   22 type  1   force =     0.00023778    0.00011404    0.00022909
     atom   23 type  1   force =     0.00004428    0.00000960    0.00007654
     atom   24 type  1   force =     0.00004377    0.00000982   -0.00007525
     atom   25 type  1   force =     0.00023064    0.00022509   -0.00010982
     atom   26 type  1   force =     0.00023778   -0.00022909   -0.00011404
     atom   27 type  1   force =     0.00023064   -0.00022509    0.00010982
     atom   28 type  1   force =     0.00023778    0.00022909    0.00011404
     atom   29 type  1   force =     0.00004428   -0.00007654   -0.00000960
     atom   30 type  1   force =     0.00004377    0.00007525   -0.00000982
     atom   31 type  1   force =     0.00004428    0.00007654    0.00000960
     atom   32 type  1   force =     0.00004377   -0.00007525    0.00000982
     atom   33 type  1   force =    -0.00001965    0.00003090    0.00003090
     atom   34 type  1   force =     0.00025828    0.00002768    0.00002768
     atom   35 type  1   force =     0.00002688    0.00002695    0.00002567
     atom   36 type  1   force =    -0.00005889    0.00004954    0.00003849
     atom   37 type  1   force =     0.00002688    0.00002567    0.00002695
     atom   38 type  1   force =    -0.00005889    0.00003849    0.00004954
     atom   39 type  1   force =    -0.00001024    0.00003664    0.00003664
     atom   40 type  1   force =     0.00395861    0.00273562    0.00273562
     atom   41 type  1   force =    -0.00001024   -0.00003664   -0.00003664
     atom   42 type  1   force =     0.00395861   -0.00273562   -0.00273562
     atom   43 type  1   force =     0.00002688   -0.00002567   -0.00002695
     atom   44 type  1   force =    -0.00005889   -0.00003849   -0.00004954
     atom   45 type  1   force =     0.00002688   -0.00002695   -0.00002567
     atom   46 type  1   force =    -0.00005889   -0.00004954   -0.00003849
     atom   47 type  1   force =    -0.00001965   -0.00003090   -0.00003090
     atom   48 type  1   force =     0.00025828   -0.00002768   -0.00002768
     atom   49 type  1   force =    -0.00005674   -0.00003661    0.00005046
     atom   50 type  1   force =     0.00002896   -0.00002609    0.00002963
     atom   51 type  1   force =     0.00383909   -0.00251043    0.00251043
     atom   52 type  1   force =    -0.00001018   -0.00003692    0.00003692
     atom   53 type  1   force =     0.00025509   -0.00002738    0.00002738
     atom   54 type  1   force =    -0.00002053   -0.00003056    0.00003056
     atom   55 type  1   force =    -0.00005674   -0.00005046    0.00003661
     atom   56 type  1   force =     0.00002896   -0.00002963    0.00002609
     atom   57 type  1   force =    -0.00005674    0.00005046   -0.00003661
     atom   58 type  1   force =     0.00002896    0.00002963   -0.00002609
     atom   59 type  1   force =     0.00025509    0.00002738   -0.00002738
     atom   60 type  1   force =    -0.00002053    0.00003056   -0.00003056
     atom   61 type  1   force =     0.00383909    0.00251043   -0.00251043
     atom   62 type  1   force =    -0.00001018    0.00003692   -0.00003692
     atom   63 type  1   force =    -0.00005674    0.00003661   -0.00005046
     atom   64 type  1   force =     0.00002896    0.00002609   -0.00002963

     Total force =     0.019405     Total SCF correction =     0.000062

     Writing output data file pwscf.save/
 
     init_run     :     10.74s CPU     11.65s WALL (       1 calls)
     electrons    :    278.62s CPU    293.61s WALL (       1 calls)
     forces       :      5.54s CPU      5.84s WALL (       1 calls)

     Called by init_run:
     wfcinit      :      9.92s CPU     10.54s WALL (       1 calls)
     potinit      :      0.18s CPU      0.24s WALL (       1 calls)
     hinit0       :      0.19s CPU      0.23s WALL (       1 calls)

     Called by electrons:
     c_bands      :    229.13s CPU    238.81s WALL (      13 calls)
     sum_band     :     42.34s CPU     45.85s WALL (      13 calls)
     v_of_rho     :      2.07s CPU      2.26s WALL (      13 calls)
     newd         :      4.82s CPU      6.60s WALL (      13 calls)
     mix_rho      :      0.64s CPU      0.69s WALL (      13 calls)

     Called by c_bands:
     init_us_2    :      4.15s CPU      4.26s WALL (      56 calls)
     cegterg      :    206.99s CPU    216.30s WALL (      26 calls)

     Called by sum_band:
     sum_band:bec :      0.04s CPU      0.04s WALL (      26 calls)
     addusdens    :      5.73s CPU      7.49s WALL (      13 calls)

     Called by *egterg:
     h_psi        :    154.90s CPU    161.85s WALL (     105 calls)
     s_psi        :     28.96s CPU     29.73s WALL (     105 calls)
     g_psi        :      0.30s CPU      0.30s WALL (      77 calls)
     cdiaghg      :      4.61s CPU      4.75s WALL (     101 calls)

     Called by h_psi:
     h_psi:pot    :    154.42s CPU    160.87s WALL (     105 calls)
     h_psi:calbec :     29.63s CPU     30.32s WALL (     105 calls)
     vloc_psi     :     95.74s CPU    100.88s WALL (     105 calls)
     add_vuspsi   :     29.04s CPU     29.67s WALL (     105 calls)

     General routines
     calbec       :     43.64s CPU     44.67s WALL (     139 calls)
     fft          :      1.48s CPU      1.72s WALL (     156 calls)
     ffts         :      0.12s CPU      0.12s WALL (      13 calls)
     fftw         :     91.08s CPU     96.39s WALL (   25044 calls)
 
     Parallel routines
     fft_scatt_xy :     21.55s CPU     22.74s WALL (   25213 calls)
     fft_scatt_yz :     17.75s CPU     19.82s WALL (   25213 calls)
 
     PWSCF        :  4m55.37s CPU     5m11.73s WALL

 
   This run was terminated on:  14:43:46  13Feb2020            

=------------------------------------------------------------------------------=
   JOB DONE.
=------------------------------------------------------------------------------=
