
     Program PWSCF v.6.3MaX starts on 14Feb2020 at 22: 7:12 

     This program is part of the open-source Quantum ESPRESSO suite
     for quantum simulation of materials; please cite
         "P. Giannozzi et al., J. Phys.:Condens. Matter 21 395502 (2009);
         "P. Giannozzi et al., J. Phys.:Condens. Matter 29 465901 (2017);
          URL http://www.quantum-espresso.org", 
     in publications or presentations arising from this work. More details at
     http://www.quantum-espresso.org/quote

     Parallel version (MPI), running on     2 processors

     MPI processes distributed on     1 nodes
     R & G space division:  proc/nbgrp/npool/nimage =       2
     Waiting for input...
     Reading input from standard input

     Current dimensions of program PWSCF are:
     Max number of different atomic species (ntypx) = 10
     Max number of k-points (npk) =  40000
     Max angular momentum in pseudopotentials (lmaxx) =  3

     Subspace diagonalization in iterative solution of the eigenvalue problem:
     a serial algorithm will be used

 
     Parallelization info
     --------------------
     sticks:   dense  smooth     PW     G-vecs:    dense   smooth      PW
     Min        3392    3392    878               210674   210674   27756
     Max        3393    3393    879               210675   210675   27759
     Sum        6785    6785   1757               421349   421349   55515
 


     bravais-lattice index     =            0
     lattice parameter (alat)  =      20.6591  a.u.
     unit-cell volume          =    8817.2783 (a.u.)^3
     number of atoms/cell      =           64
     number of atomic types    =            1
     number of electrons       =       256.00
     number of Kohn-Sham states=          154
     kinetic-energy cutoff     =      50.0000  Ry
     charge density cutoff     =     200.0000  Ry
     convergence threshold     =      1.0E-08
     mixing beta               =       0.7000
     number of iterations used =            8  plain     mixing
     Exchange-correlation      = PBE ( 1  4  3  4 0 0)

     celldm(1)=  20.659106  celldm(2)=   0.000000  celldm(3)=   0.000000
     celldm(4)=   0.000000  celldm(5)=   0.000000  celldm(6)=   0.000000

     crystal axes: (cart. coord. in units of alat)
               a(1) = (   1.000000   0.000000   0.000000 )  
               a(2) = (   0.000000   1.000000   0.000000 )  
               a(3) = (   0.000000   0.000000   1.000000 )  

     reciprocal axes: (cart. coord. in units 2 pi/alat)
               b(1) = (  1.000000  0.000000  0.000000 )  
               b(2) = (  0.000000  1.000000  0.000000 )  
               b(3) = (  0.000000  0.000000  1.000000 )  


     PseudoPot. # 1 for Si read from file:
     ~/kedar/softwares/SSSP_precision_pseudos/Si.pbe-n-rrkjus_psl.1.0.0.UPF
     MD5 check sum: Not computed, couldn't open file
     Pseudo is Ultrasoft + core correction, Zval =  4.0
     Generated using "atomic" code by A. Dal Corso v.5.1
     Using radial grid of 1141 points,  6 beta functions with: 
                l(1) =   0
                l(2) =   0
                l(3) =   1
                l(4) =   1
                l(5) =   2
                l(6) =   2
     Q(r) pseudized with 0 coefficients 


     atomic species   valence    mass     pseudopotential
        Si             4.00    28.08550     Si( 1.00)

     No symmetry found



   Cartesian axes

     site n.     atom                  positions (alat units)
         1           Si  tau(   1) = (   0.4404043   0.4375000   0.4375000  )
         2           Si  tau(   2) = (   0.9375000   0.4375000   0.4375000  )
         3           Si  tau(   3) = (   0.4375000   0.9375000   0.4375000  )
         4           Si  tau(   4) = (   0.9375000   0.9375000   0.4375000  )
         5           Si  tau(   5) = (   0.4375000   0.4375000   0.9375000  )
         6           Si  tau(   6) = (   0.9375000   0.4375000   0.9375000  )
         7           Si  tau(   7) = (   0.4375000   0.9375000   0.9375000  )
         8           Si  tau(   8) = (   0.9375000   0.9375000   0.9375000  )
         9           Si  tau(   9) = (   0.4375000   0.1875000   0.1875000  )
        10           Si  tau(  10) = (   0.9375000   0.1875000   0.1875000  )
        11           Si  tau(  11) = (   0.4375000   0.6875000   0.1875000  )
        12           Si  tau(  12) = (   0.9375000   0.6875000   0.1875000  )
        13           Si  tau(  13) = (   0.4375000   0.1875000   0.6875000  )
        14           Si  tau(  14) = (   0.9375000   0.1875000   0.6875000  )
        15           Si  tau(  15) = (   0.4375000   0.6875000   0.6875000  )
        16           Si  tau(  16) = (   0.9375000   0.6875000   0.6875000  )
        17           Si  tau(  17) = (   0.1875000   0.4375000   0.1875000  )
        18           Si  tau(  18) = (   0.6875000   0.4375000   0.1875000  )
        19           Si  tau(  19) = (   0.1875000   0.9375000   0.1875000  )
        20           Si  tau(  20) = (   0.6875000   0.9375000   0.1875000  )
        21           Si  tau(  21) = (   0.1875000   0.4375000   0.6875000  )
        22           Si  tau(  22) = (   0.6875000   0.4375000   0.6875000  )
        23           Si  tau(  23) = (   0.1875000   0.9375000   0.6875000  )
        24           Si  tau(  24) = (   0.6875000   0.9375000   0.6875000  )
        25           Si  tau(  25) = (   0.1875000   0.1875000   0.4375000  )
        26           Si  tau(  26) = (   0.6875000   0.1875000   0.4375000  )
        27           Si  tau(  27) = (   0.1875000   0.6875000   0.4375000  )
        28           Si  tau(  28) = (   0.6875000   0.6875000   0.4375000  )
        29           Si  tau(  29) = (   0.1875000   0.1875000   0.9375000  )
        30           Si  tau(  30) = (   0.6875000   0.1875000   0.9375000  )
        31           Si  tau(  31) = (   0.1875000   0.6875000   0.9375000  )
        32           Si  tau(  32) = (   0.6875000   0.6875000   0.9375000  )
        33           Si  tau(  33) = (   0.0625000   0.0625000   0.0625000  )
        34           Si  tau(  34) = (   0.5625000   0.0625000   0.0625000  )
        35           Si  tau(  35) = (   0.0625000   0.5625000   0.0625000  )
        36           Si  tau(  36) = (   0.5625000   0.5625000   0.0625000  )
        37           Si  tau(  37) = (   0.0625000   0.0625000   0.5625000  )
        38           Si  tau(  38) = (   0.5625000   0.0625000   0.5625000  )
        39           Si  tau(  39) = (   0.0625000   0.5625000   0.5625000  )
        40           Si  tau(  40) = (   0.5625000   0.5625000   0.5625000  )
        41           Si  tau(  41) = (   0.0625000   0.3125000   0.3125000  )
        42           Si  tau(  42) = (   0.5625000   0.3125000   0.3125000  )
        43           Si  tau(  43) = (   0.0625000   0.8125000   0.3125000  )
        44           Si  tau(  44) = (   0.5625000   0.8125000   0.3125000  )
        45           Si  tau(  45) = (   0.0625000   0.3125000   0.8125000  )
        46           Si  tau(  46) = (   0.5625000   0.3125000   0.8125000  )
        47           Si  tau(  47) = (   0.0625000   0.8125000   0.8125000  )
        48           Si  tau(  48) = (   0.5625000   0.8125000   0.8125000  )
        49           Si  tau(  49) = (   0.3125000   0.0625000   0.3125000  )
        50           Si  tau(  50) = (   0.8125000   0.0625000   0.3125000  )
        51           Si  tau(  51) = (   0.3125000   0.5625000   0.3125000  )
        52           Si  tau(  52) = (   0.8125000   0.5595957   0.3125000  )
        53           Si  tau(  53) = (   0.3125000   0.0625000   0.8125000  )
        54           Si  tau(  54) = (   0.8125000   0.0625000   0.8125000  )
        55           Si  tau(  55) = (   0.3125000   0.5625000   0.8125000  )
        56           Si  tau(  56) = (   0.8125000   0.5625000   0.8125000  )
        57           Si  tau(  57) = (   0.3125000   0.3125000   0.0625000  )
        58           Si  tau(  58) = (   0.8125000   0.3125000   0.0625000  )
        59           Si  tau(  59) = (   0.3125000   0.8125000   0.0625000  )
        60           Si  tau(  60) = (   0.8125000   0.8125000   0.0625000  )
        61           Si  tau(  61) = (   0.3125000   0.3125000   0.5625000  )
        62           Si  tau(  62) = (   0.8125000   0.3125000   0.5625000  )
        63           Si  tau(  63) = (   0.3125000   0.8125000   0.5625000  )
        64           Si  tau(  64) = (   0.8125000   0.8125000   0.5625000  )

     number of k points=     4  gaussian smearing, width (Ry)=  0.0100
                       cart. coord. in units 2pi/alat
        k(    1) = (   0.2500000   0.2500000   0.2500000), wk =   0.5000000
        k(    2) = (  -0.2500000  -0.2500000   0.2500000), wk =   0.5000000
        k(    3) = (  -0.2500000   0.2500000  -0.2500000), wk =   0.5000000
        k(    4) = (   0.2500000  -0.2500000  -0.2500000), wk =   0.5000000

     Dense  grid:   421349 G-vectors     FFT dimensions: (  96,  96,  96)

     Estimated max dynamical RAM per process >       2.05 GB

     Estimated total dynamical RAM >       4.11 GB

     Check: negative/imaginary core charge=   -0.000001    0.000000

     Initial potential from superposition of free atoms

     starting charge  255.96421, renormalised to  256.00000
     Starting wfcs are  256 randomized atomic wfcs

     total cpu time spent up to now is       41.2 secs

     Self-consistent Calculation

     iteration #  1     ecut=    50.00 Ry     beta= 0.70
     Davidson diagonalization with overlap
     ethr =  1.00E-02,  avg # of iterations =  3.0

     Threshold (ethr) on eigenvalues was too large:
     Diagonalizing with lowered threshold

     Davidson diagonalization with overlap
     ethr =  6.78E-04,  avg # of iterations =  2.0

     total cpu time spent up to now is      205.7 secs

     total energy              =    -730.80278288 Ry
     Harris-Foulkes estimate   =    -731.20887883 Ry
     estimated scf accuracy    <       1.72045627 Ry

     iteration #  2     ecut=    50.00 Ry     beta= 0.70
     Davidson diagonalization with overlap
     ethr =  6.72E-04,  avg # of iterations =  1.0

     total cpu time spent up to now is      273.3 secs

     total energy              =    -730.86487528 Ry
     Harris-Foulkes estimate   =    -730.87085627 Ry
     estimated scf accuracy    <       0.08014036 Ry

     iteration #  3     ecut=    50.00 Ry     beta= 0.70
     Davidson diagonalization with overlap
     ethr =  3.13E-05,  avg # of iterations =  9.8

     total cpu time spent up to now is      447.6 secs

     total energy              =    -730.87931042 Ry
     Harris-Foulkes estimate   =    -730.88060273 Ry
     estimated scf accuracy    <       0.00279672 Ry

     iteration #  4     ecut=    50.00 Ry     beta= 0.70
     Davidson diagonalization with overlap
     ethr =  1.09E-06,  avg # of iterations =  5.0

     total cpu time spent up to now is      630.1 secs

     total energy              =    -730.87955838 Ry
     Harris-Foulkes estimate   =    -730.88069814 Ry
     estimated scf accuracy    <       0.00328718 Ry

     iteration #  5     ecut=    50.00 Ry     beta= 0.70
     Davidson diagonalization with overlap
     ethr =  1.09E-06,  avg # of iterations =  2.0

     total cpu time spent up to now is      810.2 secs

     total energy              =    -730.87999079 Ry
     Harris-Foulkes estimate   =    -730.88010753 Ry
     estimated scf accuracy    <       0.00035077 Ry

     iteration #  6     ecut=    50.00 Ry     beta= 0.70
     Davidson diagonalization with overlap
     ethr =  1.37E-07,  avg # of iterations =  3.0

     total cpu time spent up to now is      982.9 secs

     total energy              =    -730.88001527 Ry
     Harris-Foulkes estimate   =    -730.88004734 Ry
     estimated scf accuracy    <       0.00007843 Ry

     iteration #  7     ecut=    50.00 Ry     beta= 0.70
     Davidson diagonalization with overlap
     ethr =  3.06E-08,  avg # of iterations =  2.0

     total cpu time spent up to now is     1159.8 secs

     total energy              =    -730.88002714 Ry
     Harris-Foulkes estimate   =    -730.88002783 Ry
     estimated scf accuracy    <       0.00000343 Ry

     iteration #  8     ecut=    50.00 Ry     beta= 0.70
     Davidson diagonalization with overlap
     ethr =  1.34E-09,  avg # of iterations =  3.0

     total cpu time spent up to now is     1354.8 secs

     total energy              =    -730.88002795 Ry
     Harris-Foulkes estimate   =    -730.88002836 Ry
     estimated scf accuracy    <       0.00000195 Ry

     iteration #  9     ecut=    50.00 Ry     beta= 0.70
     Davidson diagonalization with overlap
     ethr =  7.62E-10,  avg # of iterations =  2.0

     total cpu time spent up to now is     1506.7 secs

     total energy              =    -730.88002784 Ry
     Harris-Foulkes estimate   =    -730.88002813 Ry
     estimated scf accuracy    <       0.00000101 Ry

     iteration # 10     ecut=    50.00 Ry     beta= 0.70
     Davidson diagonalization with overlap
     ethr =  3.96E-10,  avg # of iterations =  1.0

     total cpu time spent up to now is     1649.1 secs

     total energy              =    -730.88002783 Ry
     Harris-Foulkes estimate   =    -730.88002790 Ry
     estimated scf accuracy    <       0.00000019 Ry

     iteration # 11     ecut=    50.00 Ry     beta= 0.70
     Davidson diagonalization with overlap
     ethr =  7.56E-11,  avg # of iterations =  3.0

     total cpu time spent up to now is     1860.8 secs

     total energy              =    -730.88002785 Ry
     Harris-Foulkes estimate   =    -730.88002786 Ry
     estimated scf accuracy    <       0.00000002 Ry

     iteration # 12     ecut=    50.00 Ry     beta= 0.70
     Davidson diagonalization with overlap
     ethr =  5.90E-12,  avg # of iterations =  3.0

     total cpu time spent up to now is     2094.6 secs

     End of self-consistent calculation

          k = 0.2500 0.2500 0.2500 ( 52563 PWs)   bands (ev):

    -5.6274  -5.1039  -5.0978  -5.0967  -4.6046  -4.5984  -4.5975  -4.1661
    -4.0714  -4.0654  -4.0641  -3.6591  -3.6581  -3.6504  -3.6488  -3.6478
    -3.6472  -3.4642  -3.4593  -3.4566  -2.9663  -2.9599  -2.9585  -2.5986
    -2.5944  -2.5911  -2.4344  -2.4309  -2.4251  -2.4240  -2.4223  -2.4212
    -0.8932  -0.8885  -0.8828  -0.8814  -0.8793  -0.8773  -0.7888  -0.7860
    -0.7821  -0.6690  -0.6677  -0.6618  -0.5920  -0.5858  -0.5813   0.1164
     0.1984   0.1999   0.2057   0.2090   0.2101   0.2135   1.0728   1.0758
     1.0813   1.4095   1.4117   1.4148   2.0182   2.0205   2.0222   2.0233
     2.0249   2.0264   2.0799   2.0836   2.0848   2.6297   2.6309   2.6333
     2.7334   2.7345   2.7355   2.7379   2.7413   2.7433   2.7892   2.7929
     2.7956   3.0945   3.0961   3.1003   3.1022   3.1036   3.1060   3.3643
     3.3666   3.3673   3.3775   3.3803   3.3835   3.7213   3.7270   3.7290
     3.7431   3.7467   3.7501   3.8309   3.8330   3.8370   4.0960   4.1012
     4.1048   4.1064   4.1084   4.1096   4.1450   4.1472   4.1518   4.4024
     4.4641   4.4669   4.4679   4.7061   4.7084   4.7133   4.7638   4.7668
     4.7714   4.9280   4.9331   5.2353   5.2382   5.2447   5.7167   5.7225
     6.9286   6.9327   6.9346   7.3671   7.3705   7.3764   7.5982   7.8542
     7.8578   7.8618   7.9815   7.9838   7.9884   8.1431   8.1450   8.1477
     8.1627   8.1668   8.1680   8.3892   8.3907   8.3944   8.3957   8.3989
     8.4008   8.4466

          k =-0.2500-0.2500 0.2500 ( 52563 PWs)   bands (ev):

    -5.6275  -5.1024  -5.0989  -5.0963  -4.6033  -4.5999  -4.5976  -4.1680
    -4.0712  -4.0672  -4.0648  -3.6573  -3.6546  -3.6520  -3.6516  -3.6465
    -3.6436  -3.4621  -3.4594  -3.4544  -2.9697  -2.9637  -2.9627  -2.5975
    -2.5941  -2.5903  -2.4322  -2.4299  -2.4268  -2.4263  -2.4218  -2.4173
    -0.8913  -0.8897  -0.8846  -0.8842  -0.8817  -0.8768  -0.7907  -0.7870
    -0.7844  -0.6739  -0.6681  -0.6671  -0.5835  -0.5805  -0.5691   0.1239
     0.1963   0.1996   0.2035   0.2043   0.2060   0.2087   1.0765   1.0796
     1.0884   1.4087   1.4119   1.4151   2.0182   2.0195   2.0215   2.0233
     2.0243   2.0270   2.0777   2.0809   2.0830   2.6333   2.6356   2.6368
     2.7299   2.7314   2.7341   2.7350   2.7391   2.7406   2.7849   2.7874
     2.7915   3.0961   3.0996   3.1000   3.1009   3.1031   3.1050   3.3618
     3.3628   3.3653   3.3755   3.3788   3.3806   3.7269   3.7295   3.7320
     3.7493   3.7531   3.7572   3.8292   3.8310   3.8338   4.1056   4.1065
     4.1069   4.1093   4.1122   4.1183   4.1431   4.1450   4.1484   4.4106
     4.4598   4.4608   4.4644   4.7027   4.7053   4.7079   4.7722   4.7743
     4.7845   4.9255   4.9306   5.2304   5.2339   5.2372   5.7119   5.7176
     6.9258   6.9278   6.9320   7.3652   7.3702   7.3739   7.5952   7.8507
     7.8549   7.8584   7.9836   7.9881   7.9907   8.1398   8.1456   8.1473
     8.1619   8.1639   8.1672   8.3938   8.3954   8.3965   8.3989   8.4025
     8.4044   8.4419

          k =-0.2500 0.2500-0.2500 ( 52563 PWs)   bands (ev):

    -5.6275  -5.1035  -5.0992  -5.0952  -4.6042  -4.6002  -4.5963  -4.1671
    -4.0716  -4.0674  -4.0630  -3.6592  -3.6541  -3.6534  -3.6513  -3.6486
    -3.6419  -3.4635  -3.4594  -3.4552  -2.9680  -2.9641  -2.9583  -2.5982
    -2.5942  -2.5906  -2.4340  -2.4285  -2.4277  -2.4262  -2.4235  -2.4161
    -0.8930  -0.8872  -0.8861  -0.8840  -0.8807  -0.8746  -0.7898  -0.7864
    -0.7829  -0.6734  -0.6679  -0.6627  -0.5887  -0.5832  -0.5741   0.1201
     0.1970   0.2007   0.2020   0.2046   0.2091   0.2142   1.0738   1.0783
     1.0851   1.4076   1.4117   1.4165   2.0170   2.0195   2.0223   2.0237
     2.0252   2.0271   2.0784   2.0809   2.0853   2.6314   2.6333   2.6350
     2.7303   2.7325   2.7355   2.7381   2.7397   2.7423   2.7856   2.7907
     2.7942   3.0945   3.0983   3.0997   3.1003   3.1038   3.1071   3.3620
     3.3650   3.3668   3.3748   3.3800   3.3837   3.7238   3.7277   3.7317
     3.7472   3.7498   3.7524   3.8294   3.8315   3.8364   4.0992   4.1044
     4.1064   4.1077   4.1095   4.1155   4.1431   4.1457   4.1513   4.4068
     4.4607   4.4638   4.4673   4.7037   4.7064   4.7116   4.7667   4.7715
     4.7785   4.9249   4.9336   5.2317   5.2356   5.2425   5.7122   5.7221
     6.9264   6.9303   6.9340   7.3664   7.3689   7.3763   7.5967   7.8523
     7.8551   7.8614   7.9820   7.9860   7.9900   8.1406   8.1448   8.1483
     8.1615   8.1650   8.1691   8.3904   8.3933   8.3953   8.3966   8.4006
     8.4044   8.4442

          k = 0.2500-0.2500-0.2500 ( 52563 PWs)   bands (ev):

    -5.6275  -5.1039  -5.0985  -5.0956  -4.6047  -4.5995  -4.5966  -4.1671
    -4.0721  -4.0663  -4.0636  -3.6601  -3.6542  -3.6526  -3.6494  -3.6492
    -3.6429  -3.4635  -3.4594  -3.4550  -2.9690  -2.9622  -2.9593  -2.5982
    -2.5942  -2.5907  -2.4342  -2.4293  -2.4275  -2.4244  -2.4235  -2.4171
    -0.8934  -0.8883  -0.8858  -0.8825  -0.8804  -0.8751  -0.7897  -0.7867
    -0.7828  -0.6734  -0.6681  -0.6626  -0.5892  -0.5823  -0.5745   0.1202
     0.1958   0.1993   0.2030   0.2065   0.2098   0.2130   1.0733   1.0794
     1.0845   1.4074   1.4122   1.4163   2.0163   2.0208   2.0221   2.0234
     2.0249   2.0273   2.0781   2.0815   2.0851   2.6310   2.6332   2.6356
     2.7310   2.7319   2.7352   2.7371   2.7403   2.7429   2.7853   2.7913
     2.7940   3.0929   3.0982   3.1010   3.1017   3.1037   3.1063   3.3631
     3.3649   3.3664   3.3749   3.3792   3.3836   3.7238   3.7276   3.7313
     3.7455   3.7498   3.7547   3.8288   3.8328   3.8357   4.0989   4.1048
     4.1065   4.1082   4.1097   4.1147   4.1424   4.1470   4.1507   4.4066
     4.4616   4.4643   4.4661   4.7032   4.7074   4.7113   4.7664   4.7720
     4.7783   4.9248   4.9337   5.2312   5.2367   5.2419   5.7122   5.7221
     6.9270   6.9301   6.9337   7.3659   7.3696   7.3761   7.5967   7.8523
     7.8551   7.8614   7.9819   7.9861   7.9899   8.1410   8.1445   8.1485
     8.1632   8.1650   8.1674   8.3892   8.3936   8.3961   8.3991   8.4006
     8.4021   8.4443

     the Fermi energy is     6.3204 ev

!    total energy              =    -730.88002785 Ry
     Harris-Foulkes estimate   =    -730.88002786 Ry
     estimated scf accuracy    <          4.2E-09 Ry

     The total energy is the sum of the following terms:

     one-electron contribution =     160.47259230 Ry
     hartree contribution      =      35.78747790 Ry
     xc contribution           =    -393.13398842 Ry
     ewald contribution        =    -534.00610963 Ry
     smearing contrib. (-TS)   =      -0.00000000 Ry

     convergence has been achieved in  12 iterations

     Forces acting on atoms (cartesian axes, Ry/au):

     atom    1 type  1   force =    -0.01601695    0.00006024    0.00004885
     atom    2 type  1   force =     0.00276040   -0.00395829    0.00273510
     atom    3 type  1   force =     0.00008057   -0.00002721    0.00002871
     atom    4 type  1   force =     0.00003105    0.00001032    0.00003693
     atom    5 type  1   force =     0.00008397   -0.00025876    0.00002794
     atom    6 type  1   force =     0.00004179    0.00005790    0.00003965
     atom    7 type  1   force =    -0.00044447    0.00002019    0.00003011
     atom    8 type  1   force =     0.00005228   -0.00002599    0.00002477
     atom    9 type  1   force =    -0.00055663    0.00008644    0.00014245
     atom   10 type  1   force =    -0.00003526    0.00002112    0.00004593
     atom   11 type  1   force =    -0.00056175    0.00016711   -0.00006001
     atom   12 type  1   force =    -0.00250873   -0.00383100    0.00250125
     atom   13 type  1   force =    -0.00055656   -0.00009160    0.00014207
     atom   14 type  1   force =    -0.00002691   -0.00003798    0.00003697
     atom   15 type  1   force =    -0.00055658   -0.00036869   -0.00008683
     atom   16 type  1   force =    -0.00004976    0.00004765    0.00002730
     atom   17 type  1   force =     0.00019193   -0.00005222    0.00017439
     atom   18 type  1   force =    -0.00249752   -0.00407271   -0.00296691
     atom   19 type  1   force =     0.00001943   -0.00003548   -0.00010352
     atom   20 type  1   force =     0.00000643    0.00000041    0.00003755
     atom   21 type  1   force =     0.00020323   -0.00014929   -0.00025171
     atom   22 type  1   force =     0.00018827    0.00017431    0.00019280
     atom   23 type  1   force =     0.00001435    0.00002931    0.00004564
     atom   24 type  1   force =     0.00001534   -0.00001728   -0.00010062
     atom   25 type  1   force =     0.00025724    0.00019528   -0.00013951
     atom   26 type  1   force =     0.00027491   -0.00022017   -0.00015225
     atom   27 type  1   force =     0.00026708   -0.00016709    0.00005923
     atom   28 type  1   force =     0.00274644   -0.00360970   -0.00239480
     atom   29 type  1   force =     0.00007448   -0.00005594   -0.00003941
     atom   30 type  1   force =     0.00007280    0.00004701   -0.00003618
     atom   31 type  1   force =     0.00007276   -0.00017833   -0.00001886
     atom   32 type  1   force =     0.00009435   -0.00001953   -0.00002681
     atom   33 type  1   force =    -0.00000999    0.00002934    0.00002108
     atom   34 type  1   force =     0.00026766    0.00002689    0.00003632
     atom   35 type  1   force =     0.00013588    0.00055075   -0.00008448
     atom   36 type  1   force =     0.00005626    0.00057918    0.00015157
     atom   37 type  1   force =     0.00001795    0.00002362    0.00001738
     atom   38 type  1   force =    -0.00006856    0.00003382    0.00006008
     atom   39 type  1   force =    -0.00012508    0.00056728   -0.00007802
     atom   40 type  1   force =     0.00384890    0.00326308    0.00284789
     atom   41 type  1   force =     0.00021831   -0.00027423    0.00007565
     atom   42 type  1   force =     0.00372918   -0.00297399   -0.00285198
     atom   43 type  1   force =    -0.00019741   -0.00025569    0.00008388
     atom   44 type  1   force =     0.00016540   -0.00026903   -0.00015994
     atom   45 type  1   force =    -0.00004908   -0.00007152   -0.00001456
     atom   46 type  1   force =     0.00001694   -0.00009324   -0.00004571
     atom   47 type  1   force =     0.00005736   -0.00007460   -0.00002118
     atom   48 type  1   force =     0.00018110   -0.00007160   -0.00003807
     atom   49 type  1   force =    -0.00005753   -0.00002963    0.00005000
     atom   50 type  1   force =     0.00002830   -0.00005020    0.00002965
     atom   51 type  1   force =     0.00384012   -0.00256572    0.00251028
     atom   52 type  1   force =    -0.00000875    0.01601521    0.00003379
     atom   53 type  1   force =     0.00025648   -0.00005342    0.00002734
     atom   54 type  1   force =    -0.00002044   -0.00002340    0.00003149
     atom   55 type  1   force =    -0.00005650    0.00042530    0.00003782
     atom   56 type  1   force =     0.00002735   -0.00008503    0.00002733
     atom   57 type  1   force =    -0.00006628    0.00000594    0.00003871
     atom   58 type  1   force =    -0.00008501   -0.00020687   -0.00025598
     atom   59 type  1   force =     0.00024634   -0.00001617   -0.00010486
     atom   60 type  1   force =    -0.00013154   -0.00020058    0.00019357
     atom   61 type  1   force =     0.00384841    0.00246568   -0.00258550
     atom   62 type  1   force =     0.00010467   -0.00020072    0.00019274
     atom   63 type  1   force =    -0.00004644   -0.00000623    0.00002678
     atom   64 type  1   force =     0.00013803   -0.00020424   -0.00025328

     Total force =     0.027450     Total SCF correction =     0.000120

     Writing output data file pwscf.save/
 
     init_run     :     39.37s CPU     40.84s WALL (       1 calls)
     electrons    :   1097.04s CPU   2053.42s WALL (       1 calls)
     forces       :     19.93s CPU     57.86s WALL (       1 calls)

     Called by init_run:
     wfcinit      :     37.29s CPU     38.36s WALL (       1 calls)
     potinit      :      0.43s CPU      0.46s WALL (       1 calls)
     hinit0       :      0.47s CPU      0.49s WALL (       1 calls)

     Called by electrons:
     c_bands      :    936.79s CPU   1731.34s WALL (      13 calls)
     sum_band     :    146.20s CPU    286.90s WALL (      13 calls)
     v_of_rho     :      3.54s CPU      6.94s WALL (      13 calls)
     newd         :     10.73s CPU     27.57s WALL (      13 calls)
     mix_rho      :      1.07s CPU      2.11s WALL (      13 calls)

     Called by c_bands:
     init_us_2    :     12.92s CPU     23.07s WALL (     112 calls)
     cegterg      :    843.79s CPU   1565.65s WALL (      52 calls)

     Called by sum_band:
     sum_band:bec :      0.07s CPU      0.07s WALL (      52 calls)
     addusdens    :     11.87s CPU     29.81s WALL (      13 calls)

     Called by *egterg:
     h_psi        :    613.35s CPU   1115.12s WALL (     215 calls)
     s_psi        :    127.55s CPU    225.99s WALL (     215 calls)
     g_psi        :      1.15s CPU      2.06s WALL (     159 calls)
     cdiaghg      :     10.83s CPU     19.55s WALL (     207 calls)

     Called by h_psi:
     h_psi:pot    :    611.20s CPU   1107.81s WALL (     215 calls)
     h_psi:calbec :    130.90s CPU    232.17s WALL (     215 calls)
     vloc_psi     :    352.48s CPU    651.43s WALL (     215 calls)
     add_vuspsi   :    127.82s CPU    224.21s WALL (     215 calls)

     General routines
     calbec       :    191.52s CPU    361.98s WALL (     283 calls)
     fft          :      3.08s CPU      6.27s WALL (     156 calls)
     ffts         :      0.18s CPU      0.36s WALL (      13 calls)
     fftw         :    353.61s CPU    689.88s WALL (   50918 calls)
 
     Parallel routines
     fft_scatt_xy :     71.12s CPU     95.90s WALL (   51087 calls)
     fft_scatt_yz :     95.98s CPU    327.23s WALL (   51087 calls)
 
     PWSCF        : 19m17.36s CPU    35m54.61s WALL

 
   This run was terminated on:  22:43: 7  14Feb2020            

=------------------------------------------------------------------------------=
   JOB DONE.
=------------------------------------------------------------------------------=
