
     Program PWSCF v.6.3MaX starts on 13Feb2020 at 21: 7:17 

     This program is part of the open-source Quantum ESPRESSO suite
     for quantum simulation of materials; please cite
         "P. Giannozzi et al., J. Phys.:Condens. Matter 21 395502 (2009);
         "P. Giannozzi et al., J. Phys.:Condens. Matter 29 465901 (2017);
          URL http://www.quantum-espresso.org", 
     in publications or presentations arising from this work. More details at
     http://www.quantum-espresso.org/quote

     Parallel version (MPI), running on     2 processors

     MPI processes distributed on     1 nodes
     R & G space division:  proc/nbgrp/npool/nimage =       2
     Waiting for input...
     Reading input from standard input

     Current dimensions of program PWSCF are:
     Max number of different atomic species (ntypx) = 10
     Max number of k-points (npk) =  40000
     Max angular momentum in pseudopotentials (lmaxx) =  3

     Subspace diagonalization in iterative solution of the eigenvalue problem:
     a serial algorithm will be used

 
     Parallelization info
     --------------------
     sticks:   dense  smooth     PW     G-vecs:    dense   smooth      PW
     Min        3392    3392    878               210674   210674   27756
     Max        3393    3393    879               210675   210675   27759
     Sum        6785    6785   1757               421349   421349   55515
 


     bravais-lattice index     =            0
     lattice parameter (alat)  =      20.6591  a.u.
     unit-cell volume          =    8817.2783 (a.u.)^3
     number of atoms/cell      =           64
     number of atomic types    =            1
     number of electrons       =       256.00
     number of Kohn-Sham states=          154
     kinetic-energy cutoff     =      50.0000  Ry
     charge density cutoff     =     200.0000  Ry
     convergence threshold     =      1.0E-08
     mixing beta               =       0.7000
     number of iterations used =            8  plain     mixing
     Exchange-correlation      = PBE ( 1  4  3  4 0 0)

     celldm(1)=  20.659106  celldm(2)=   0.000000  celldm(3)=   0.000000
     celldm(4)=   0.000000  celldm(5)=   0.000000  celldm(6)=   0.000000

     crystal axes: (cart. coord. in units of alat)
               a(1) = (   1.000000   0.000000   0.000000 )  
               a(2) = (   0.000000   1.000000   0.000000 )  
               a(3) = (   0.000000   0.000000   1.000000 )  

     reciprocal axes: (cart. coord. in units 2 pi/alat)
               b(1) = (  1.000000  0.000000  0.000000 )  
               b(2) = (  0.000000  1.000000  0.000000 )  
               b(3) = (  0.000000  0.000000  1.000000 )  


     PseudoPot. # 1 for Si read from file:
     ~/kedar/softwares/SSSP_precision_pseudos/Si.pbe-n-rrkjus_psl.1.0.0.UPF
     MD5 check sum: Not computed, couldn't open file
     Pseudo is Ultrasoft + core correction, Zval =  4.0
     Generated using "atomic" code by A. Dal Corso v.5.1
     Using radial grid of 1141 points,  6 beta functions with: 
                l(1) =   0
                l(2) =   0
                l(3) =   1
                l(4) =   1
                l(5) =   2
                l(6) =   2
     Q(r) pseudized with 0 coefficients 


     atomic species   valence    mass     pseudopotential
        Si             4.00    28.08550     Si( 1.00)

     No symmetry found



   Cartesian axes

     site n.     atom                  positions (alat units)
         1           Si  tau(   1) = (   0.4404043   0.4375000   0.4375000  )
         2           Si  tau(   2) = (   0.9375000   0.4375000   0.4375000  )
         3           Si  tau(   3) = (   0.4375000   0.9375000   0.4375000  )
         4           Si  tau(   4) = (   0.9375000   0.9375000   0.4375000  )
         5           Si  tau(   5) = (   0.4375000   0.4375000   0.9375000  )
         6           Si  tau(   6) = (   0.9375000   0.4375000   0.9375000  )
         7           Si  tau(   7) = (   0.4395536   0.9395536   0.9375000  )
         8           Si  tau(   8) = (   0.9375000   0.9375000   0.9375000  )
         9           Si  tau(   9) = (   0.4375000   0.1875000   0.1875000  )
        10           Si  tau(  10) = (   0.9375000   0.1875000   0.1875000  )
        11           Si  tau(  11) = (   0.4375000   0.6875000   0.1875000  )
        12           Si  tau(  12) = (   0.9375000   0.6875000   0.1875000  )
        13           Si  tau(  13) = (   0.4375000   0.1875000   0.6875000  )
        14           Si  tau(  14) = (   0.9375000   0.1875000   0.6875000  )
        15           Si  tau(  15) = (   0.4375000   0.6875000   0.6875000  )
        16           Si  tau(  16) = (   0.9375000   0.6875000   0.6875000  )
        17           Si  tau(  17) = (   0.1875000   0.4375000   0.1875000  )
        18           Si  tau(  18) = (   0.6875000   0.4375000   0.1875000  )
        19           Si  tau(  19) = (   0.1875000   0.9375000   0.1875000  )
        20           Si  tau(  20) = (   0.6875000   0.9375000   0.1875000  )
        21           Si  tau(  21) = (   0.1875000   0.4375000   0.6875000  )
        22           Si  tau(  22) = (   0.6875000   0.4375000   0.6875000  )
        23           Si  tau(  23) = (   0.1875000   0.9375000   0.6875000  )
        24           Si  tau(  24) = (   0.6875000   0.9375000   0.6875000  )
        25           Si  tau(  25) = (   0.1875000   0.1875000   0.4375000  )
        26           Si  tau(  26) = (   0.6875000   0.1875000   0.4375000  )
        27           Si  tau(  27) = (   0.1875000   0.6875000   0.4375000  )
        28           Si  tau(  28) = (   0.6875000   0.6875000   0.4375000  )
        29           Si  tau(  29) = (   0.1875000   0.1875000   0.9375000  )
        30           Si  tau(  30) = (   0.6875000   0.1875000   0.9375000  )
        31           Si  tau(  31) = (   0.1875000   0.6875000   0.9375000  )
        32           Si  tau(  32) = (   0.6875000   0.6875000   0.9375000  )
        33           Si  tau(  33) = (   0.0625000   0.0625000   0.0625000  )
        34           Si  tau(  34) = (   0.5625000   0.0625000   0.0625000  )
        35           Si  tau(  35) = (   0.0625000   0.5625000   0.0625000  )
        36           Si  tau(  36) = (   0.5625000   0.5625000   0.0625000  )
        37           Si  tau(  37) = (   0.0625000   0.0625000   0.5625000  )
        38           Si  tau(  38) = (   0.5625000   0.0625000   0.5625000  )
        39           Si  tau(  39) = (   0.0625000   0.5625000   0.5625000  )
        40           Si  tau(  40) = (   0.5625000   0.5625000   0.5625000  )
        41           Si  tau(  41) = (   0.0625000   0.3125000   0.3125000  )
        42           Si  tau(  42) = (   0.5625000   0.3125000   0.3125000  )
        43           Si  tau(  43) = (   0.0625000   0.8125000   0.3125000  )
        44           Si  tau(  44) = (   0.5625000   0.8125000   0.3125000  )
        45           Si  tau(  45) = (   0.0625000   0.3125000   0.8125000  )
        46           Si  tau(  46) = (   0.5625000   0.3125000   0.8125000  )
        47           Si  tau(  47) = (   0.0625000   0.8125000   0.8125000  )
        48           Si  tau(  48) = (   0.5625000   0.8125000   0.8125000  )
        49           Si  tau(  49) = (   0.3125000   0.0625000   0.3125000  )
        50           Si  tau(  50) = (   0.8125000   0.0625000   0.3125000  )
        51           Si  tau(  51) = (   0.3125000   0.5625000   0.3125000  )
        52           Si  tau(  52) = (   0.8125000   0.5625000   0.3125000  )
        53           Si  tau(  53) = (   0.3125000   0.0625000   0.8125000  )
        54           Si  tau(  54) = (   0.8125000   0.0625000   0.8125000  )
        55           Si  tau(  55) = (   0.3125000   0.5625000   0.8125000  )
        56           Si  tau(  56) = (   0.8125000   0.5625000   0.8125000  )
        57           Si  tau(  57) = (   0.3125000   0.3125000   0.0625000  )
        58           Si  tau(  58) = (   0.8125000   0.3125000   0.0625000  )
        59           Si  tau(  59) = (   0.3125000   0.8125000   0.0625000  )
        60           Si  tau(  60) = (   0.8125000   0.8125000   0.0625000  )
        61           Si  tau(  61) = (   0.3125000   0.3125000   0.5625000  )
        62           Si  tau(  62) = (   0.8125000   0.3125000   0.5625000  )
        63           Si  tau(  63) = (   0.3125000   0.8125000   0.5625000  )
        64           Si  tau(  64) = (   0.8125000   0.8125000   0.5625000  )

     number of k points=     4  gaussian smearing, width (Ry)=  0.0100
                       cart. coord. in units 2pi/alat
        k(    1) = (   0.2500000   0.2500000   0.2500000), wk =   0.5000000
        k(    2) = (  -0.2500000  -0.2500000   0.2500000), wk =   0.5000000
        k(    3) = (  -0.2500000   0.2500000  -0.2500000), wk =   0.5000000
        k(    4) = (   0.2500000  -0.2500000  -0.2500000), wk =   0.5000000

     Dense  grid:   421349 G-vectors     FFT dimensions: (  96,  96,  96)

     Estimated max dynamical RAM per process >       2.05 GB

     Estimated total dynamical RAM >       4.11 GB

     Check: negative/imaginary core charge=   -0.000001    0.000000

     Initial potential from superposition of free atoms

     starting charge  255.96421, renormalised to  256.00000
     Starting wfcs are  256 randomized atomic wfcs

     total cpu time spent up to now is       39.6 secs

     Self-consistent Calculation

     iteration #  1     ecut=    50.00 Ry     beta= 0.70
     Davidson diagonalization with overlap
     ethr =  1.00E-02,  avg # of iterations =  3.0

     Threshold (ethr) on eigenvalues was too large:
     Diagonalizing with lowered threshold

     Davidson diagonalization with overlap
     ethr =  6.78E-04,  avg # of iterations =  2.0

     total cpu time spent up to now is      203.7 secs

     total energy              =    -730.80287135 Ry
     Harris-Foulkes estimate   =    -731.20901917 Ry
     estimated scf accuracy    <       1.72060614 Ry

     iteration #  2     ecut=    50.00 Ry     beta= 0.70
     Davidson diagonalization with overlap
     ethr =  6.72E-04,  avg # of iterations =  1.0

     total cpu time spent up to now is      271.5 secs

     total energy              =    -730.86490981 Ry
     Harris-Foulkes estimate   =    -730.87087676 Ry
     estimated scf accuracy    <       0.08012225 Ry

     iteration #  3     ecut=    50.00 Ry     beta= 0.70
     Davidson diagonalization with overlap
     ethr =  3.13E-05,  avg # of iterations = 10.2

     total cpu time spent up to now is      393.2 secs

     total energy              =    -730.87932821 Ry
     Harris-Foulkes estimate   =    -730.88055679 Ry
     estimated scf accuracy    <       0.00272673 Ry

     iteration #  4     ecut=    50.00 Ry     beta= 0.70
     Davidson diagonalization with overlap
     ethr =  1.07E-06,  avg # of iterations =  6.5

     total cpu time spent up to now is      500.8 secs

     total energy              =    -730.87967651 Ry
     Harris-Foulkes estimate   =    -730.88052321 Ry
     estimated scf accuracy    <       0.00242112 Ry

     iteration #  5     ecut=    50.00 Ry     beta= 0.70
     Davidson diagonalization with overlap
     ethr =  9.46E-07,  avg # of iterations =  2.0

     total cpu time spent up to now is      577.2 secs

     total energy              =    -730.87996945 Ry
     Harris-Foulkes estimate   =    -730.88007508 Ry
     estimated scf accuracy    <       0.00030680 Ry

     iteration #  6     ecut=    50.00 Ry     beta= 0.70
     Davidson diagonalization with overlap
     ethr =  1.20E-07,  avg # of iterations =  3.0

     total cpu time spent up to now is      656.7 secs

     total energy              =    -730.87999349 Ry
     Harris-Foulkes estimate   =    -730.88002073 Ry
     estimated scf accuracy    <       0.00006620 Ry

     iteration #  7     ecut=    50.00 Ry     beta= 0.70
     Davidson diagonalization with overlap
     ethr =  2.59E-08,  avg # of iterations =  2.0

     total cpu time spent up to now is      738.9 secs

     total energy              =    -730.88000360 Ry
     Harris-Foulkes estimate   =    -730.88000432 Ry
     estimated scf accuracy    <       0.00000342 Ry

     iteration #  8     ecut=    50.00 Ry     beta= 0.70
     Davidson diagonalization with overlap
     ethr =  1.33E-09,  avg # of iterations =  3.0

     total cpu time spent up to now is      830.3 secs

     total energy              =    -730.88000432 Ry
     Harris-Foulkes estimate   =    -730.88000471 Ry
     estimated scf accuracy    <       0.00000183 Ry

     iteration #  9     ecut=    50.00 Ry     beta= 0.70
     Davidson diagonalization with overlap
     ethr =  7.14E-10,  avg # of iterations =  2.0

     total cpu time spent up to now is      906.2 secs

     total energy              =    -730.88000424 Ry
     Harris-Foulkes estimate   =    -730.88000450 Ry
     estimated scf accuracy    <       0.00000093 Ry

     iteration # 10     ecut=    50.00 Ry     beta= 0.70
     Davidson diagonalization with overlap
     ethr =  3.63E-10,  avg # of iterations =  1.0

     total cpu time spent up to now is      974.7 secs

     total energy              =    -730.88000422 Ry
     Harris-Foulkes estimate   =    -730.88000430 Ry
     estimated scf accuracy    <       0.00000020 Ry

     iteration # 11     ecut=    50.00 Ry     beta= 0.70
     Davidson diagonalization with overlap
     ethr =  7.63E-11,  avg # of iterations =  3.0

     total cpu time spent up to now is     1057.1 secs

     total energy              =    -730.88000424 Ry
     Harris-Foulkes estimate   =    -730.88000425 Ry
     estimated scf accuracy    <       0.00000002 Ry

     iteration # 12     ecut=    50.00 Ry     beta= 0.70
     Davidson diagonalization with overlap
     ethr =  6.19E-12,  avg # of iterations =  3.0

     total cpu time spent up to now is     1144.1 secs

     End of self-consistent calculation

          k = 0.2500 0.2500 0.2500 ( 52563 PWs)   bands (ev):

    -5.6274  -5.1025  -5.0987  -5.0973  -4.6033  -4.5993  -4.5980  -4.1659
    -4.0696  -4.0661  -4.0648  -3.6600  -3.6572  -3.6511  -3.6501  -3.6480
    -3.6456  -3.4660  -3.4586  -3.4560  -2.9636  -2.9609  -2.9590  -2.6006
    -2.5933  -2.5905  -2.4342  -2.4310  -2.4258  -2.4248  -2.4222  -2.4202
    -0.8926  -0.8865  -0.8836  -0.8812  -0.8797  -0.8783  -0.7907  -0.7844
    -0.7812  -0.6708  -0.6669  -0.6597  -0.5937  -0.5878  -0.5802   0.1157
     0.1976   0.2035   0.2051   0.2095   0.2103   0.2125   1.0685   1.0775
     1.0823   1.4084   1.4119   1.4157   2.0189   2.0204   2.0215   2.0221
     2.0257   2.0268   2.0811   2.0829   2.0850   2.6273   2.6322   2.6333
     2.7323   2.7345   2.7357   2.7393   2.7418   2.7439   2.7894   2.7927
     2.7973   3.0932   3.0988   3.1014   3.1016   3.1030   3.1044   3.3645
     3.3656   3.3690   3.3771   3.3810   3.3838   3.7209   3.7255   3.7291
     3.7402   3.7480   3.7501   3.8310   3.8344   3.8359   4.0951   4.0983
     4.1051   4.1072   4.1081   4.1093   4.1453   4.1488   4.1505   4.4019
     4.4644   4.4653   4.4704   4.7068   4.7100   4.7123   4.7604   4.7674
     4.7717   4.9270   4.9345   5.2364   5.2402   5.2434   5.7157   5.7245
     6.9279   6.9341   6.9349   7.3667   7.3726   7.3750   7.5985   7.8539
     7.8594   7.8616   7.9804   7.9826   7.9898   8.1425   8.1454   8.1482
     8.1630   8.1648   8.1701   8.3859   8.3911   8.3938   8.3973   8.3982
     8.4007   8.4472

          k =-0.2500-0.2500 0.2500 ( 52563 PWs)   bands (ev):

    -5.6276  -5.1013  -5.1000  -5.0964  -4.6024  -4.6011  -4.5974  -4.1684
    -4.0697  -4.0684  -4.0652  -3.6576  -3.6547  -3.6526  -3.6514  -3.6459
    -3.6429  -3.4628  -3.4601  -3.4526  -2.9679  -2.9660  -2.9632  -2.5982
    -2.5952  -2.5884  -2.4318  -2.4299  -2.4273  -2.4263  -2.4208  -2.4176
    -0.8903  -0.8888  -0.8878  -0.8843  -0.8818  -0.8760  -0.7920  -0.7883
    -0.7823  -0.6753  -0.6694  -0.6654  -0.5842  -0.5762  -0.5700   0.1247
     0.1969   0.1990   0.1996   0.2040   0.2056   0.2115   1.0757   1.0808
     1.0895   1.4081   1.4121   1.4155   2.0172   2.0191   2.0229   2.0235
     2.0248   2.0260   2.0786   2.0801   2.0821   2.6334   2.6344   2.6392
     2.7278   2.7306   2.7338   2.7375   2.7384   2.7403   2.7845   2.7876
     2.7906   3.0971   3.0984   3.0996   3.0998   3.1024   3.1077   3.3605
     3.3645   3.3651   3.3747   3.3772   3.3811   3.7269   3.7289   3.7344
     3.7490   3.7514   3.7607   3.8285   3.8305   3.8339   4.1051   4.1062
     4.1071   4.1085   4.1164   4.1195   4.1420   4.1442   4.1487   4.4117
     4.4571   4.4629   4.4633   4.7024   4.7046   4.7076   4.7722   4.7772
     4.7852   4.9240   4.9315   5.2300   5.2328   5.2370   5.7102   5.7184
     6.9255   6.9262   6.9328   7.3659   7.3685   7.3744   7.5948   7.8507
     7.8532   7.8590   7.9822   7.9893   7.9915   8.1409   8.1445   8.1473
     8.1607   8.1651   8.1667   8.3925   8.3952   8.3963   8.4000   8.4024
     8.4068   8.4416

          k =-0.2500 0.2500-0.2500 ( 52563 PWs)   bands (ev):

    -5.6275  -5.1016  -5.0990  -5.0974  -4.6025  -4.6003  -4.5979  -4.1676
    -4.0697  -4.0669  -4.0661  -3.6607  -3.6541  -3.6525  -3.6515  -3.6464
    -3.6417  -3.4638  -3.4607  -3.4524  -2.9665  -2.9650  -2.9619  -2.5995
    -2.5958  -2.5872  -2.4342  -2.4294  -2.4273  -2.4263  -2.4206  -2.4172
    -0.8921  -0.8883  -0.8870  -0.8845  -0.8833  -0.8715  -0.7929  -0.7885
    -0.7799  -0.6752  -0.6693  -0.6614  -0.5841  -0.5815  -0.5740   0.1220
     0.1964   0.1989   0.1999   0.2038   0.2052   0.2187   1.0753   1.0785
     1.0871   1.4077   1.4108   1.4172   2.0167   2.0189   2.0229   2.0236
     2.0243   2.0271   2.0787   2.0811   2.0843   2.6315   2.6334   2.6378
     2.7284   2.7308   2.7352   2.7383   2.7391   2.7414   2.7849   2.7901
     2.7931   3.0956   3.0986   3.0991   3.1001   3.1010   3.1097   3.3607
     3.3648   3.3669   3.3744   3.3776   3.3839   3.7257   3.7280   3.7325
     3.7475   3.7500   3.7566   3.8285   3.8306   3.8363   4.1035   4.1048
     4.1061   4.1072   4.1122   4.1175   4.1422   4.1444   4.1515   4.4084
     4.4581   4.4635   4.4670   4.7027   4.7051   4.7107   4.7712   4.7725
     4.7804   4.9233   4.9341   5.2306   5.2336   5.2417   5.7100   5.7220
     6.9249   6.9285   6.9347   7.3662   7.3673   7.3767   7.5959   7.8515
     7.8533   7.8616   7.9803   7.9883   7.9916   8.1421   8.1432   8.1482
     8.1602   8.1649   8.1690   8.3914   8.3929   8.3958   8.3981   8.4006
     8.4072   8.4430

          k = 0.2500-0.2500-0.2500 ( 52563 PWs)   bands (ev):

    -5.6275  -5.1016  -5.0996  -5.0971  -4.6027  -4.6001  -4.5978  -4.1666
    -4.0690  -4.0677  -4.0650  -3.6609  -3.6567  -3.6511  -3.6501  -3.6486
    -3.6423  -3.4661  -3.4579  -3.4550  -2.9652  -2.9620  -2.9605  -2.6018
    -2.5927  -2.5891  -2.4349  -2.4311  -2.4258  -2.4248  -2.4228  -2.4175
    -0.8967  -0.8849  -0.8835  -0.8820  -0.8801  -0.8765  -0.7940  -0.7842
    -0.7804  -0.6741  -0.6670  -0.6596  -0.5898  -0.5825  -0.5803   0.1183
     0.1904   0.2038   0.2053   0.2091   0.2106   0.2129   1.0711   1.0798
     1.0828   1.4066   1.4131   1.4161   2.0174   2.0206   2.0213   2.0221
     2.0257   2.0271   2.0796   2.0829   2.0850   2.6285   2.6333   2.6350
     2.7308   2.7336   2.7344   2.7378   2.7408   2.7435   2.7871   2.7910
     2.7969   3.0914   3.1001   3.1012   3.1022   3.1028   3.1055   3.3619
     3.3653   3.3690   3.3751   3.3808   3.3838   3.7224   3.7277   3.7304
     3.7431   3.7497   3.7517   3.8287   3.8344   3.8358   4.0970   4.1023
     4.1070   4.1082   4.1095   4.1107   4.1428   4.1488   4.1506   4.4044
     4.4620   4.4640   4.4695   4.7033   4.7095   4.7116   4.7650   4.7717
     4.7729   4.9245   4.9353   5.2320   5.2395   5.2427   5.7122   5.7247
     6.9259   6.9321   6.9351   7.3642   7.3737   7.3747   7.5974   7.8511
     7.8591   7.8611   7.9803   7.9840   7.9917   8.1418   8.1462   8.1472
     8.1605   8.1648   8.1707   8.3855   8.3933   8.3957   8.3981   8.4004
     8.4021   8.4453

     the Fermi energy is     6.3209 ev

!    total energy              =    -730.88000424 Ry
     Harris-Foulkes estimate   =    -730.88000425 Ry
     estimated scf accuracy    <          4.5E-09 Ry

     The total energy is the sum of the following terms:

     one-electron contribution =     160.47279713 Ry
     hartree contribution      =      35.78737560 Ry
     xc contribution           =    -393.13398583 Ry
     ewald contribution        =    -534.00619114 Ry
     smearing contrib. (-TS)   =      -0.00000000 Ry

     convergence has been achieved in  12 iterations

     Forces acting on atoms (cartesian axes, Ry/au):

     atom    1 type  1   force =    -0.01638832   -0.00000344   -0.00000239
     atom    2 type  1   force =     0.00004166    0.00001888    0.00000010
     atom    3 type  1   force =     0.00009625    0.00003992   -0.00000018
     atom    4 type  1   force =    -0.00001145   -0.00033680    0.00000012
     atom    5 type  1   force =     0.00009488    0.00001664    0.00000177
     atom    6 type  1   force =    -0.00001052   -0.00000376    0.00000168
     atom    7 type  1   force =    -0.01187530   -0.01139874   -0.00061115
     atom    8 type  1   force =     0.00004366    0.00003997   -0.00000062
     atom    9 type  1   force =    -0.00082314    0.00020325    0.00019380
     atom   10 type  1   force =     0.00000892    0.00003547   -0.00005112
     atom   11 type  1   force =    -0.00081761    0.00019398   -0.00019169
     atom   12 type  1   force =     0.00001027    0.00003426    0.00005135
     atom   13 type  1   force =    -0.00097955    0.00013409   -0.00013196
     atom   14 type  1   force =    -0.00000019    0.00002858    0.00005691
     atom   15 type  1   force =    -0.00098222    0.00013309    0.00012258
     atom   16 type  1   force =    -0.00000363    0.00002850   -0.00005717
     atom   17 type  1   force =     0.00025617   -0.00010175    0.00028503
     atom   18 type  1   force =     0.00026185   -0.00010625   -0.00028882
     atom   19 type  1   force =     0.00012951   -0.00030258   -0.00016008
     atom   20 type  1   force =     0.00013193   -0.00030227    0.00015623
     atom   21 type  1   force =     0.00026778    0.00010432   -0.00027141
     atom   22 type  1   force =     0.00027742    0.00011134    0.00027489
     atom   23 type  1   force =     0.00028926   -0.00044159    0.00031534
     atom   24 type  1   force =     0.00028937   -0.00044415   -0.00031746
     atom   25 type  1   force =     0.00031622    0.00031108   -0.00010971
     atom   26 type  1   force =     0.00021540   -0.00025184   -0.00010354
     atom   27 type  1   force =     0.00020802   -0.00024636    0.00009668
     atom   28 type  1   force =     0.00032304    0.00031322    0.00011409
     atom   29 type  1   force =     0.00005070   -0.00007274   -0.00001193
     atom   30 type  1   force =     0.00037786    0.00040913    0.00015371
     atom   31 type  1   force =     0.00036272    0.00039630   -0.00014690
     atom   32 type  1   force =     0.00004940   -0.00006873    0.00000809
     atom   33 type  1   force =     0.00000064    0.00001707    0.00009167
     atom   34 type  1   force =     0.00507578    0.00484377    0.00401755
     atom   35 type  1   force =     0.00006285    0.00006316    0.00006289
     atom   36 type  1   force =    -0.00007229    0.00006866    0.00010131
     atom   37 type  1   force =     0.00006683    0.00022777    0.00006566
     atom   38 type  1   force =    -0.00006374    0.00003217    0.00009998
     atom   39 type  1   force =    -0.00000311    0.00004605    0.00008074
     atom   40 type  1   force =     0.00416368    0.00277583    0.00277069
     atom   41 type  1   force =    -0.00004594   -0.00007257   -0.00003849
     atom   42 type  1   force =     0.00412228   -0.00273452   -0.00273873
     atom   43 type  1   force =     0.00002558    0.00013662   -0.00002510
     atom   44 type  1   force =    -0.00013551   -0.00011180   -0.00005128
     atom   45 type  1   force =     0.00002872   -0.00002557   -0.00002473
     atom   46 type  1   force =    -0.00012645   -0.00008244   -0.00004523
     atom   47 type  1   force =    -0.00005302   -0.00009644   -0.00002140
     atom   48 type  1   force =     0.00113781    0.00090424    0.00001707
     atom   49 type  1   force =    -0.00012987   -0.00011332    0.00004808
     atom   50 type  1   force =     0.00002814    0.00013620    0.00002742
     atom   51 type  1   force =     0.00400181   -0.00251094    0.00251074
     atom   52 type  1   force =    -0.00004621   -0.00007203    0.00003649
     atom   53 type  1   force =     0.00118548    0.00085110    0.00007356
     atom   54 type  1   force =    -0.00005154   -0.00009865    0.00002225
     atom   55 type  1   force =    -0.00012399   -0.00008300    0.00004649
     atom   56 type  1   force =     0.00003121   -0.00002740    0.00002694
     atom   57 type  1   force =    -0.00007048    0.00006997   -0.00009733
     atom   58 type  1   force =     0.00006899    0.00006902   -0.00006673
     atom   59 type  1   force =     0.00466937    0.00444555   -0.00347240
     atom   60 type  1   force =    -0.00000128    0.00001547   -0.00009157
     atom   61 type  1   force =     0.00403874    0.00254938   -0.00254991
     atom   62 type  1   force =    -0.00000182    0.00004655   -0.00008142
     atom   63 type  1   force =    -0.00006197    0.00003084   -0.00010315
     atom   64 type  1   force =     0.00006898    0.00022824   -0.00006829

     Total force =     0.028158     Total SCF correction =     0.000125

     Writing output data file pwscf.save/
 
     init_run     :     37.27s CPU     39.23s WALL (       1 calls)
     electrons    :   1062.93s CPU   1104.57s WALL (       1 calls)
     forces       :     18.49s CPU     19.24s WALL (       1 calls)

     Called by init_run:
     wfcinit      :     35.97s CPU     37.60s WALL (       1 calls)
     potinit      :      0.26s CPU      0.29s WALL (       1 calls)
     hinit0       :      0.34s CPU      0.38s WALL (       1 calls)

     Called by electrons:
     c_bands      :    898.33s CPU    928.74s WALL (      13 calls)
     sum_band     :    147.87s CPU    155.24s WALL (      13 calls)
     v_of_rho     :      3.98s CPU      4.16s WALL (      13 calls)
     newd         :     12.24s CPU     16.10s WALL (      13 calls)
     mix_rho      :      1.23s CPU      1.30s WALL (      13 calls)

     Called by c_bands:
     init_us_2    :     13.62s CPU     14.12s WALL (     112 calls)
     cegterg      :    807.19s CPU    835.75s WALL (      52 calls)

     Called by sum_band:
     sum_band:bec :      0.07s CPU      0.07s WALL (      52 calls)
     addusdens    :     13.08s CPU     16.66s WALL (      13 calls)

     Called by *egterg:
     h_psi        :    588.67s CPU    608.24s WALL (     223 calls)
     s_psi        :    124.21s CPU    126.27s WALL (     223 calls)
     g_psi        :      1.14s CPU      1.16s WALL (     167 calls)
     cdiaghg      :     11.08s CPU     11.28s WALL (     215 calls)

     Called by h_psi:
     h_psi:pot    :    586.73s CPU    604.08s WALL (     223 calls)
     h_psi:calbec :    126.24s CPU    128.62s WALL (     223 calls)
     vloc_psi     :    335.19s CPU    347.85s WALL (     223 calls)
     add_vuspsi   :    125.30s CPU    127.61s WALL (     223 calls)

     General routines
     calbec       :    184.77s CPU    188.14s WALL (     291 calls)
     fft          :      3.20s CPU      3.50s WALL (     156 calls)
     ffts         :      0.22s CPU      0.24s WALL (      13 calls)
     fftw         :    329.23s CPU    341.50s WALL (   50654 calls)
 
     Parallel routines
     fft_scatt_xy :     75.64s CPU     78.06s WALL (   50823 calls)
     fft_scatt_yz :     61.76s CPU     66.17s WALL (   50823 calls)
 
     PWSCF        : 18m39.23s CPU    19m23.89s WALL

 
   This run was terminated on:  21:26:41  13Feb2020            

=------------------------------------------------------------------------------=
   JOB DONE.
=------------------------------------------------------------------------------=
