
     Program PWSCF v.6.3MaX starts on 14Feb2020 at  8:46:24 

     This program is part of the open-source Quantum ESPRESSO suite
     for quantum simulation of materials; please cite
         "P. Giannozzi et al., J. Phys.:Condens. Matter 21 395502 (2009);
         "P. Giannozzi et al., J. Phys.:Condens. Matter 29 465901 (2017);
          URL http://www.quantum-espresso.org", 
     in publications or presentations arising from this work. More details at
     http://www.quantum-espresso.org/quote

     Parallel version (MPI), running on     2 processors

     MPI processes distributed on     1 nodes
     R & G space division:  proc/nbgrp/npool/nimage =       2
     Waiting for input...
     Reading input from standard input

     Current dimensions of program PWSCF are:
     Max number of different atomic species (ntypx) = 10
     Max number of k-points (npk) =  40000
     Max angular momentum in pseudopotentials (lmaxx) =  3

     Subspace diagonalization in iterative solution of the eigenvalue problem:
     a serial algorithm will be used

 
     Parallelization info
     --------------------
     sticks:   dense  smooth     PW     G-vecs:    dense   smooth      PW
     Min        3392    3392    878               210674   210674   27756
     Max        3393    3393    879               210675   210675   27759
     Sum        6785    6785   1757               421349   421349   55515
 


     bravais-lattice index     =            0
     lattice parameter (alat)  =      20.6591  a.u.
     unit-cell volume          =    8817.2783 (a.u.)^3
     number of atoms/cell      =           64
     number of atomic types    =            1
     number of electrons       =       256.00
     number of Kohn-Sham states=          154
     kinetic-energy cutoff     =      50.0000  Ry
     charge density cutoff     =     200.0000  Ry
     convergence threshold     =      1.0E-08
     mixing beta               =       0.7000
     number of iterations used =            8  plain     mixing
     Exchange-correlation      = PBE ( 1  4  3  4 0 0)

     celldm(1)=  20.659106  celldm(2)=   0.000000  celldm(3)=   0.000000
     celldm(4)=   0.000000  celldm(5)=   0.000000  celldm(6)=   0.000000

     crystal axes: (cart. coord. in units of alat)
               a(1) = (   1.000000   0.000000   0.000000 )  
               a(2) = (   0.000000   1.000000   0.000000 )  
               a(3) = (   0.000000   0.000000   1.000000 )  

     reciprocal axes: (cart. coord. in units 2 pi/alat)
               b(1) = (  1.000000  0.000000  0.000000 )  
               b(2) = (  0.000000  1.000000  0.000000 )  
               b(3) = (  0.000000  0.000000  1.000000 )  


     PseudoPot. # 1 for Si read from file:
     ~/kedar/softwares/SSSP_precision_pseudos/Si.pbe-n-rrkjus_psl.1.0.0.UPF
     MD5 check sum: Not computed, couldn't open file
     Pseudo is Ultrasoft + core correction, Zval =  4.0
     Generated using "atomic" code by A. Dal Corso v.5.1
     Using radial grid of 1141 points,  6 beta functions with: 
                l(1) =   0
                l(2) =   0
                l(3) =   1
                l(4) =   1
                l(5) =   2
                l(6) =   2
     Q(r) pseudized with 0 coefficients 


     atomic species   valence    mass     pseudopotential
        Si             4.00    28.08550     Si( 1.00)

     No symmetry found



   Cartesian axes

     site n.     atom                  positions (alat units)
         1           Si  tau(   1) = (   0.4404043   0.4375000   0.4375000  )
         2           Si  tau(   2) = (   0.9375000   0.4375000   0.4375000  )
         3           Si  tau(   3) = (   0.4375000   0.9375000   0.4375000  )
         4           Si  tau(   4) = (   0.9375000   0.9375000   0.4375000  )
         5           Si  tau(   5) = (   0.4375000   0.4375000   0.9375000  )
         6           Si  tau(   6) = (   0.9375000   0.4375000   0.9375000  )
         7           Si  tau(   7) = (   0.4375000   0.9375000   0.9375000  )
         8           Si  tau(   8) = (   0.9375000   0.9375000   0.9375000  )
         9           Si  tau(   9) = (   0.4375000   0.1875000   0.1875000  )
        10           Si  tau(  10) = (   0.9375000   0.1875000   0.1875000  )
        11           Si  tau(  11) = (   0.4375000   0.6875000   0.1875000  )
        12           Si  tau(  12) = (   0.9375000   0.6904043   0.1875000  )
        13           Si  tau(  13) = (   0.4375000   0.1875000   0.6875000  )
        14           Si  tau(  14) = (   0.9375000   0.1875000   0.6875000  )
        15           Si  tau(  15) = (   0.4375000   0.6875000   0.6875000  )
        16           Si  tau(  16) = (   0.9375000   0.6875000   0.6875000  )
        17           Si  tau(  17) = (   0.1875000   0.4375000   0.1875000  )
        18           Si  tau(  18) = (   0.6875000   0.4375000   0.1875000  )
        19           Si  tau(  19) = (   0.1875000   0.9375000   0.1875000  )
        20           Si  tau(  20) = (   0.6875000   0.9375000   0.1875000  )
        21           Si  tau(  21) = (   0.1875000   0.4375000   0.6875000  )
        22           Si  tau(  22) = (   0.6875000   0.4375000   0.6875000  )
        23           Si  tau(  23) = (   0.1875000   0.9375000   0.6875000  )
        24           Si  tau(  24) = (   0.6875000   0.9375000   0.6875000  )
        25           Si  tau(  25) = (   0.1875000   0.1875000   0.4375000  )
        26           Si  tau(  26) = (   0.6875000   0.1875000   0.4375000  )
        27           Si  tau(  27) = (   0.1875000   0.6875000   0.4375000  )
        28           Si  tau(  28) = (   0.6875000   0.6875000   0.4375000  )
        29           Si  tau(  29) = (   0.1875000   0.1875000   0.9375000  )
        30           Si  tau(  30) = (   0.6875000   0.1875000   0.9375000  )
        31           Si  tau(  31) = (   0.1875000   0.6875000   0.9375000  )
        32           Si  tau(  32) = (   0.6875000   0.6875000   0.9375000  )
        33           Si  tau(  33) = (   0.0625000   0.0625000   0.0625000  )
        34           Si  tau(  34) = (   0.5625000   0.0625000   0.0625000  )
        35           Si  tau(  35) = (   0.0625000   0.5625000   0.0625000  )
        36           Si  tau(  36) = (   0.5625000   0.5625000   0.0625000  )
        37           Si  tau(  37) = (   0.0625000   0.0625000   0.5625000  )
        38           Si  tau(  38) = (   0.5625000   0.0625000   0.5625000  )
        39           Si  tau(  39) = (   0.0625000   0.5625000   0.5625000  )
        40           Si  tau(  40) = (   0.5625000   0.5625000   0.5625000  )
        41           Si  tau(  41) = (   0.0625000   0.3125000   0.3125000  )
        42           Si  tau(  42) = (   0.5625000   0.3125000   0.3125000  )
        43           Si  tau(  43) = (   0.0625000   0.8125000   0.3125000  )
        44           Si  tau(  44) = (   0.5625000   0.8125000   0.3125000  )
        45           Si  tau(  45) = (   0.0625000   0.3125000   0.8125000  )
        46           Si  tau(  46) = (   0.5625000   0.3125000   0.8125000  )
        47           Si  tau(  47) = (   0.0625000   0.8125000   0.8125000  )
        48           Si  tau(  48) = (   0.5625000   0.8125000   0.8125000  )
        49           Si  tau(  49) = (   0.3125000   0.0625000   0.3125000  )
        50           Si  tau(  50) = (   0.8125000   0.0625000   0.3125000  )
        51           Si  tau(  51) = (   0.3125000   0.5625000   0.3125000  )
        52           Si  tau(  52) = (   0.8125000   0.5625000   0.3125000  )
        53           Si  tau(  53) = (   0.3125000   0.0625000   0.8125000  )
        54           Si  tau(  54) = (   0.8125000   0.0625000   0.8125000  )
        55           Si  tau(  55) = (   0.3125000   0.5625000   0.8125000  )
        56           Si  tau(  56) = (   0.8125000   0.5625000   0.8125000  )
        57           Si  tau(  57) = (   0.3125000   0.3125000   0.0625000  )
        58           Si  tau(  58) = (   0.8125000   0.3125000   0.0625000  )
        59           Si  tau(  59) = (   0.3125000   0.8125000   0.0625000  )
        60           Si  tau(  60) = (   0.8125000   0.8125000   0.0625000  )
        61           Si  tau(  61) = (   0.3125000   0.3125000   0.5625000  )
        62           Si  tau(  62) = (   0.8125000   0.3125000   0.5625000  )
        63           Si  tau(  63) = (   0.3125000   0.8125000   0.5625000  )
        64           Si  tau(  64) = (   0.8125000   0.8125000   0.5625000  )

     number of k points=     4  gaussian smearing, width (Ry)=  0.0100
                       cart. coord. in units 2pi/alat
        k(    1) = (   0.2500000   0.2500000   0.2500000), wk =   0.5000000
        k(    2) = (  -0.2500000  -0.2500000   0.2500000), wk =   0.5000000
        k(    3) = (  -0.2500000   0.2500000  -0.2500000), wk =   0.5000000
        k(    4) = (   0.2500000  -0.2500000  -0.2500000), wk =   0.5000000

     Dense  grid:   421349 G-vectors     FFT dimensions: (  96,  96,  96)

     Estimated max dynamical RAM per process >       2.05 GB

     Estimated total dynamical RAM >       4.11 GB

     Check: negative/imaginary core charge=   -0.000001    0.000000

     Initial potential from superposition of free atoms

     starting charge  255.96421, renormalised to  256.00000
     Starting wfcs are  256 randomized atomic wfcs

     total cpu time spent up to now is       87.8 secs

     Self-consistent Calculation

     iteration #  1     ecut=    50.00 Ry     beta= 0.70
     Davidson diagonalization with overlap
     ethr =  1.00E-02,  avg # of iterations =  3.0

     Threshold (ethr) on eigenvalues was too large:
     Diagonalizing with lowered threshold

     Davidson diagonalization with overlap
     ethr =  6.78E-04,  avg # of iterations =  2.0

     total cpu time spent up to now is      433.7 secs

     total energy              =    -730.80290274 Ry
     Harris-Foulkes estimate   =    -731.20905755 Ry
     estimated scf accuracy    <       1.72062940 Ry

     iteration #  2     ecut=    50.00 Ry     beta= 0.70
     Davidson diagonalization with overlap
     ethr =  6.72E-04,  avg # of iterations =  1.0

     total cpu time spent up to now is      569.5 secs

     total energy              =    -730.86492391 Ry
     Harris-Foulkes estimate   =    -730.87089772 Ry
     estimated scf accuracy    <       0.08013231 Ry

     iteration #  3     ecut=    50.00 Ry     beta= 0.70
     Davidson diagonalization with overlap
     ethr =  3.13E-05,  avg # of iterations =  9.8

     total cpu time spent up to now is      810.9 secs

     total energy              =    -730.87932846 Ry
     Harris-Foulkes estimate   =    -730.88059446 Ry
     estimated scf accuracy    <       0.00276615 Ry

     iteration #  4     ecut=    50.00 Ry     beta= 0.70
     Davidson diagonalization with overlap
     ethr =  1.08E-06,  avg # of iterations =  4.2

     total cpu time spent up to now is     1010.5 secs

     total energy              =    -730.87967520 Ry
     Harris-Foulkes estimate   =    -730.88059408 Ry
     estimated scf accuracy    <       0.00254355 Ry

     iteration #  5     ecut=    50.00 Ry     beta= 0.70
     Davidson diagonalization with overlap
     ethr =  9.94E-07,  avg # of iterations =  2.0

     total cpu time spent up to now is     1175.8 secs

     total energy              =    -730.87999679 Ry
     Harris-Foulkes estimate   =    -730.88008272 Ry
     estimated scf accuracy    <       0.00023553 Ry

     iteration #  6     ecut=    50.00 Ry     beta= 0.70
     Davidson diagonalization with overlap
     ethr =  9.20E-08,  avg # of iterations =  3.0

     total cpu time spent up to now is     1347.3 secs

     total energy              =    -730.88001401 Ry
     Harris-Foulkes estimate   =    -730.88004297 Ry
     estimated scf accuracy    <       0.00007920 Ry

     iteration #  7     ecut=    50.00 Ry     beta= 0.70
     Davidson diagonalization with overlap
     ethr =  3.09E-08,  avg # of iterations =  2.0

     total cpu time spent up to now is     1508.2 secs

     total energy              =    -730.88002542 Ry
     Harris-Foulkes estimate   =    -730.88002590 Ry
     estimated scf accuracy    <       0.00000295 Ry

     iteration #  8     ecut=    50.00 Ry     beta= 0.70
     Davidson diagonalization with overlap
     ethr =  1.15E-09,  avg # of iterations =  3.0

     total cpu time spent up to now is     1712.3 secs

     total energy              =    -730.88002624 Ry
     Harris-Foulkes estimate   =    -730.88002667 Ry
     estimated scf accuracy    <       0.00000196 Ry

     iteration #  9     ecut=    50.00 Ry     beta= 0.70
     Davidson diagonalization with overlap
     ethr =  7.64E-10,  avg # of iterations =  1.8

     total cpu time spent up to now is     1846.1 secs

     total energy              =    -730.88002613 Ry
     Harris-Foulkes estimate   =    -730.88002636 Ry
     estimated scf accuracy    <       0.00000072 Ry

     iteration # 10     ecut=    50.00 Ry     beta= 0.70
     Davidson diagonalization with overlap
     ethr =  2.81E-10,  avg # of iterations =  2.0

     total cpu time spent up to now is     2015.3 secs

     total energy              =    -730.88002614 Ry
     Harris-Foulkes estimate   =    -730.88002619 Ry
     estimated scf accuracy    <       0.00000014 Ry

     iteration # 11     ecut=    50.00 Ry     beta= 0.70
     Davidson diagonalization with overlap
     ethr =  5.46E-11,  avg # of iterations =  2.5

     total cpu time spent up to now is     2234.9 secs

     total energy              =    -730.88002615 Ry
     Harris-Foulkes estimate   =    -730.88002616 Ry
     estimated scf accuracy    <       0.00000002 Ry

     iteration # 12     ecut=    50.00 Ry     beta= 0.70
     Davidson diagonalization with overlap
     ethr =  6.93E-12,  avg # of iterations =  3.0

     total cpu time spent up to now is     2460.5 secs

     End of self-consistent calculation

          k = 0.2500 0.2500 0.2500 ( 52563 PWs)   bands (ev):

    -5.6274  -5.1025  -5.0996  -5.0963  -4.6029  -4.6004  -4.5972  -4.1661
    -4.0699  -4.0674  -4.0637  -3.6597  -3.6566  -3.6513  -3.6492  -3.6484
    -3.6462  -3.4647  -3.4588  -3.4566  -2.9643  -2.9621  -2.9585  -2.6006
    -2.5928  -2.5908  -2.4352  -2.4293  -2.4264  -2.4239  -2.4223  -2.4208
    -0.8941  -0.8868  -0.8840  -0.8819  -0.8789  -0.8767  -0.7917  -0.7836
    -0.7815  -0.6699  -0.6674  -0.6615  -0.5919  -0.5857  -0.5814   0.1163
     0.1967   0.2023   0.2053   0.2073   0.2109   0.2141   1.0719   1.0766
     1.0814   1.4102   1.4107   1.4150   2.0182   2.0204   2.0219   2.0230
     2.0240   2.0278   2.0803   2.0834   2.0849   2.6284   2.6320   2.6334
     2.7333   2.7344   2.7357   2.7386   2.7401   2.7436   2.7881   2.7936
     2.7961   3.0952   3.0973   3.1009   3.1020   3.1027   3.1045   3.3640
     3.3664   3.3673   3.3789   3.3792   3.3838   3.7225   3.7257   3.7287
     3.7422   3.7482   3.7499   3.8309   3.8336   3.8364   4.0954   4.1009
     4.1049   4.1076   4.1085   4.1088   4.1451   4.1478   4.1512   4.4027
     4.4639   4.4669   4.4679   4.7061   4.7091   4.7127   4.7635   4.7671
     4.7715   4.9280   4.9330   5.2353   5.2388   5.2441   5.7167   5.7224
     6.9286   6.9326   6.9346   7.3668   7.3694   7.3777   7.5982   7.8539
     7.8568   7.8632   7.9813   7.9832   7.9892   8.1425   8.1440   8.1486
     8.1628   8.1666   8.1686   8.3893   8.3912   8.3933   8.3966   8.3990
     8.4003   8.4466

          k =-0.2500-0.2500 0.2500 ( 52563 PWs)   bands (ev):

    -5.6275  -5.1024  -5.0989  -5.0963  -4.6035  -4.6001  -4.5974  -4.1681
    -4.0711  -4.0674  -4.0645  -3.6575  -3.6543  -3.6528  -3.6518  -3.6475
    -3.6419  -3.4622  -3.4599  -3.4537  -2.9703  -2.9644  -2.9613  -2.5977
    -2.5960  -2.5884  -2.4310  -2.4295  -2.4279  -2.4267  -2.4213  -2.4177
    -0.8910  -0.8879  -0.8865  -0.8845  -0.8814  -0.8772  -0.7917  -0.7891
    -0.7810  -0.6743  -0.6688  -0.6663  -0.5835  -0.5802  -0.5694   0.1239
     0.1951   0.1994   0.2016   0.2043   0.2060   0.2120   1.0765   1.0793
     1.0887   1.4087   1.4114   1.4156   2.0184   2.0197   2.0220   2.0231
     2.0241   2.0265   2.0777   2.0807   2.0831   2.6331   2.6344   2.6382
     2.7295   2.7313   2.7344   2.7360   2.7379   2.7410   2.7849   2.7881
     2.7910   3.0954   3.0996   3.1001   3.1010   3.1025   3.1060   3.3617
     3.3629   3.3656   3.3756   3.3780   3.3811   3.7269   3.7297   3.7319
     3.7496   3.7523   3.7578   3.8285   3.8318   3.8335   4.1051   4.1066
     4.1070   4.1088   4.1129   4.1189   4.1422   4.1456   4.1482   4.4107
     4.4598   4.4608   4.4644   4.7022   4.7061   4.7076   4.7723   4.7740
     4.7847   4.9254   4.9306   5.2298   5.2347   5.2371   5.7119   5.7176
     6.9258   6.9279   6.9320   7.3663   7.3688   7.3741   7.5952   7.8515
     7.8538   7.8586   7.9827   7.9889   7.9909   8.1403   8.1456   8.1473
     8.1618   8.1636   8.1671   8.3925   8.3956   8.3965   8.3992   8.4024
     8.4053   8.4418

          k =-0.2500 0.2500-0.2500 ( 52563 PWs)   bands (ev):

    -5.6275  -5.1019  -5.1000  -5.0961  -4.6029  -4.6008  -4.5970  -4.1671
    -4.0703  -4.0681  -4.0637  -3.6572  -3.6536  -3.6527  -3.6516  -3.6487
    -3.6447  -3.4635  -3.4594  -3.4550  -2.9676  -2.9644  -2.9584  -2.5982
    -2.5943  -2.5908  -2.4332  -2.4284  -2.4268  -2.4262  -2.4232  -2.4182
    -0.8936  -0.8873  -0.8848  -0.8842  -0.8806  -0.8751  -0.7901  -0.7863
    -0.7826  -0.6732  -0.6681  -0.6626  -0.5861  -0.5832  -0.5768   0.1202
     0.1965   0.2006   0.2030   0.2042   0.2092   0.2140   1.0741   1.0785
     1.0847   1.4076   1.4117   1.4165   2.0172   2.0210   2.0216   2.0228
     2.0248   2.0271   2.0789   2.0812   2.0849   2.6308   2.6334   2.6355
     2.7309   2.7324   2.7349   2.7377   2.7402   2.7419   2.7863   2.7900
     2.7943   3.0961   3.0975   3.0999   3.1001   3.1031   3.1069   3.3621
     3.3645   3.3670   3.3751   3.3800   3.3836   3.7248   3.7281   3.7297
     3.7462   3.7497   3.7539   3.8291   3.8318   3.8364   4.1002   4.1048
     4.1063   4.1073   4.1090   4.1154   4.1429   4.1459   4.1511   4.4068
     4.4605   4.4635   4.4676   4.7034   4.7067   4.7116   4.7680   4.7716
     4.7774   4.9249   4.9336   5.2315   5.2359   5.2424   5.7122   5.7221
     6.9271   6.9296   6.9341   7.3653   7.3703   7.3760   7.5967   7.8515
     7.8563   7.8611   7.9821   7.9861   7.9900   8.1409   8.1451   8.1483
     8.1621   8.1637   8.1692   8.3911   8.3938   8.3961   8.3969   8.3993
     8.4036   8.4440

          k = 0.2500-0.2500-0.2500 ( 52563 PWs)   bands (ev):

    -5.6275  -5.1027  -5.0985  -5.0967  -4.6034  -4.5994  -4.5979  -4.1670
    -4.0708  -4.0664  -4.0649  -3.6593  -3.6544  -3.6517  -3.6513  -3.6492
    -3.6427  -3.4636  -3.4594  -3.4550  -2.9666  -2.9627  -2.9611  -2.5981
    -2.5943  -2.5908  -2.4342  -2.4283  -2.4264  -2.4260  -2.4240  -2.4170
    -0.8928  -0.8872  -0.8850  -0.8839  -0.8813  -0.8753  -0.7901  -0.7864
    -0.7828  -0.6731  -0.6681  -0.6627  -0.5893  -0.5827  -0.5742   0.1202
     0.1972   0.2007   0.2035   0.2050   0.2083   0.2129   1.0730   1.0789
     1.0853   1.4076   1.4120   1.4162   2.0170   2.0205   2.0214   2.0235
     2.0250   2.0272   2.0791   2.0811   2.0846   2.6311   2.6331   2.6357
     2.7307   2.7332   2.7352   2.7380   2.7391   2.7419   2.7858   2.7909
     2.7941   3.0944   3.0990   3.1005   3.1010   3.1025   3.1063   3.3614
     3.3655   3.3668   3.3756   3.3799   3.3831   3.7245   3.7277   3.7307
     3.7459   3.7504   3.7534   3.8301   3.8320   3.8353   4.0987   4.1050
     4.1071   4.1078   4.1090   4.1154   4.1439   4.1460   4.1502   4.4065
     4.4603   4.4645   4.4671   4.7046   4.7068   4.7105   4.7663   4.7718
     4.7786   4.9249   4.9337   5.2329   5.2359   5.2410   5.7122   5.7221
     6.9264   6.9307   6.9336   7.3665   7.3692   7.3760   7.5967   7.8523
     7.8551   7.8614   7.9819   7.9860   7.9901   8.1404   8.1449   8.1485
     8.1613   8.1660   8.1682   8.3904   8.3935   8.3953   8.3980   8.4013
     8.4024   8.4441

     the Fermi energy is     6.3204 ev

!    total energy              =    -730.88002615 Ry
     Harris-Foulkes estimate   =    -730.88002615 Ry
     estimated scf accuracy    <          4.6E-09 Ry

     The total energy is the sum of the following terms:

     one-electron contribution =     160.47283115 Ry
     hartree contribution      =      35.78737256 Ry
     xc contribution           =    -393.13399614 Ry
     ewald contribution        =    -534.00623372 Ry
     smearing contrib. (-TS)   =      -0.00000000 Ry

     convergence has been achieved in  12 iterations

     Forces acting on atoms (cartesian axes, Ry/au):

     atom    1 type  1   force =    -0.01604524    0.00004406    0.00007699
     atom    2 type  1   force =     0.00013574    0.00023080   -0.00022519
     atom    3 type  1   force =     0.00006465    0.00004377   -0.00007610
     atom    4 type  1   force =     0.00010736    0.00023765    0.00022925
     atom    5 type  1   force =     0.00004527    0.00004435   -0.00007729
     atom    6 type  1   force =    -0.00011686    0.00023038    0.00022494
     atom    7 type  1   force =    -0.00048447    0.00004388    0.00007626
     atom    8 type  1   force =    -0.00008824    0.00023727   -0.00022914
     atom    9 type  1   force =    -0.00053103    0.00010825    0.00011458
     atom   10 type  1   force =     0.00000242    0.00003393    0.00000999
     atom   11 type  1   force =    -0.00052542    0.00016553   -0.00011072
     atom   12 type  1   force =     0.00000278   -0.01604493   -0.00000831
     atom   13 type  1   force =    -0.00052526   -0.00008320    0.00011064
     atom   14 type  1   force =     0.00000221   -0.00001587    0.00000828
     atom   15 type  1   force =    -0.00052936   -0.00059164   -0.00011391
     atom   16 type  1   force =     0.00000063    0.00004623   -0.00001030
     atom   17 type  1   force =     0.00000609    0.00012094    0.00033594
     atom   18 type  1   force =     0.00046219    0.00011673   -0.00033949
     atom   19 type  1   force =     0.00027304    0.00022828    0.00003802
     atom   20 type  1   force =    -0.00018539    0.00022644   -0.00003860
     atom   21 type  1   force =     0.00030820    0.00015267   -0.00021567
     atom   22 type  1   force =     0.00015999    0.00015867    0.00021971
     atom   23 type  1   force =    -0.00003238    0.00005400    0.00008570
     atom   24 type  1   force =     0.00012022    0.00005454   -0.00008556
     atom   25 type  1   force =     0.00022066    0.00022670   -0.00012003
     atom   26 type  1   force =     0.00022878   -0.00022704   -0.00010355
     atom   27 type  1   force =     0.00011554   -0.00075529   -0.00000537
     atom   28 type  1   force =     0.00012780   -0.00029594    0.00022427
     atom   29 type  1   force =     0.00005396   -0.00007335   -0.00001905
     atom   30 type  1   force =     0.00005280    0.00007682   -0.00000095
     atom   31 type  1   force =     0.00015460   -0.00044898   -0.00009929
     atom   32 type  1   force =     0.00015753   -0.00060646    0.00012421
     atom   33 type  1   force =    -0.00005636    0.00002063    0.00006876
     atom   34 type  1   force =     0.00023141    0.00005627    0.00005647
     atom   35 type  1   force =    -0.00248344    0.00386636    0.00253666
     atom   36 type  1   force =    -0.00009532   -0.00000679    0.00008841
     atom   37 type  1   force =    -0.00000346    0.00005414    0.00005302
     atom   38 type  1   force =    -0.00008787    0.00001899    0.00008020
     atom   39 type  1   force =    -0.00006079   -0.00002028    0.00007155
     atom   40 type  1   force =     0.00393064    0.00299011    0.00276553
     atom   41 type  1   force =     0.00002727   -0.00004674    0.00000036
     atom   42 type  1   force =     0.00398249   -0.00270914   -0.00270871
     atom   43 type  1   force =     0.00276263    0.00393300    0.00270954
     atom   44 type  1   force =    -0.00002027   -0.00009695   -0.00000098
     atom   45 type  1   force =     0.00005430   -0.00000045   -0.00000024
     atom   46 type  1   force =    -0.00002849   -0.00006906   -0.00000818
     atom   47 type  1   force =     0.00002937   -0.00008892    0.00000731
     atom   48 type  1   force =     0.00028620    0.00022974    0.00000055
     atom   49 type  1   force =    -0.00003108   -0.00000728    0.00002053
     atom   50 type  1   force =     0.00006639   -0.00003704   -0.00000616
     atom   51 type  1   force =     0.00387460   -0.00256826    0.00245971
     atom   52 type  1   force =     0.00250112    0.00380236   -0.00247408
     atom   53 type  1   force =     0.00028563   -0.00004629   -0.00000269
     atom   54 type  1   force =     0.00000859   -0.00000133    0.00000302
     atom   55 type  1   force =    -0.00002756    0.00020375    0.00000906
     atom   56 type  1   force =     0.00007821   -0.00008670   -0.00001017
     atom   57 type  1   force =    -0.00008213    0.00007692   -0.00006320
     atom   58 type  1   force =    -0.00000802    0.00001999   -0.00006368
     atom   59 type  1   force =     0.00021732   -0.00003190   -0.00007655
     atom   60 type  1   force =    -0.00275672    0.00398899   -0.00276525
     atom   61 type  1   force =     0.00380852    0.00249147   -0.00254147
     atom   62 type  1   force =    -0.00003710    0.00006248   -0.00006217
     atom   63 type  1   force =    -0.00008496    0.00029464   -0.00007934
     atom   64 type  1   force =    -0.00001993   -0.00003189   -0.00006810

     Total force =     0.027456     Total SCF correction =     0.000124

     Writing output data file pwscf.save/
 
     init_run     :     40.90s CPU     87.30s WALL (       1 calls)
     electrons    :   1080.13s CPU   2372.73s WALL (       1 calls)
     forces       :     19.13s CPU     48.48s WALL (       1 calls)

     Called by init_run:
     wfcinit      :     38.91s CPU     84.60s WALL (       1 calls)
     potinit      :      0.40s CPU      0.51s WALL (       1 calls)
     hinit0       :      0.47s CPU      0.50s WALL (       1 calls)

     Called by electrons:
     c_bands      :    918.10s CPU   2005.99s WALL (      13 calls)
     sum_band     :    147.78s CPU    328.21s WALL (      13 calls)
     v_of_rho     :      3.52s CPU      7.46s WALL (      13 calls)
     newd         :     10.73s CPU     30.13s WALL (      13 calls)
     mix_rho      :      1.16s CPU      2.51s WALL (      13 calls)

     Called by c_bands:
     init_us_2    :     12.20s CPU     25.97s WALL (     112 calls)
     cegterg      :    825.36s CPU   1806.57s WALL (      52 calls)

     Called by sum_band:
     sum_band:bec :      0.07s CPU      0.07s WALL (      52 calls)
     addusdens    :     11.95s CPU     33.84s WALL (      13 calls)

     Called by *egterg:
     h_psi        :    602.72s CPU   1318.12s WALL (     213 calls)
     s_psi        :    126.14s CPU    269.63s WALL (     213 calls)
     g_psi        :      1.20s CPU      2.57s WALL (     157 calls)
     cdiaghg      :     10.75s CPU     23.04s WALL (     205 calls)

     Called by h_psi:
     h_psi:pot    :    600.64s CPU   1309.12s WALL (     213 calls)
     h_psi:calbec :    128.52s CPU    276.81s WALL (     213 calls)
     vloc_psi     :    345.51s CPU    763.54s WALL (     213 calls)
     add_vuspsi   :    126.61s CPU    268.77s WALL (     213 calls)

     General routines
     calbec       :    189.46s CPU    413.64s WALL (     281 calls)
     fft          :      3.12s CPU      6.78s WALL (     156 calls)
     ffts         :      0.20s CPU      0.40s WALL (      13 calls)
     fftw         :    350.55s CPU    819.61s WALL (   50584 calls)
 
     Parallel routines
     fft_scatt_xy :     69.05s CPU    102.21s WALL (   50753 calls)
     fft_scatt_yz :     93.45s CPU    419.13s WALL (   50753 calls)
 
     PWSCF        : 19m 0.89s CPU    41m50.57s WALL

 
   This run was terminated on:   9:28:14  14Feb2020            

=------------------------------------------------------------------------------=
   JOB DONE.
=------------------------------------------------------------------------------=
