
     Program PWSCF v.6.3MaX starts on 13Feb2020 at 19: 6:32 

     This program is part of the open-source Quantum ESPRESSO suite
     for quantum simulation of materials; please cite
         "P. Giannozzi et al., J. Phys.:Condens. Matter 21 395502 (2009);
         "P. Giannozzi et al., J. Phys.:Condens. Matter 29 465901 (2017);
          URL http://www.quantum-espresso.org", 
     in publications or presentations arising from this work. More details at
     http://www.quantum-espresso.org/quote

     Parallel version (MPI), running on     2 processors

     MPI processes distributed on     1 nodes
     R & G space division:  proc/nbgrp/npool/nimage =       2
     Waiting for input...
     Reading input from standard input

     Current dimensions of program PWSCF are:
     Max number of different atomic species (ntypx) = 10
     Max number of k-points (npk) =  40000
     Max angular momentum in pseudopotentials (lmaxx) =  3

     Subspace diagonalization in iterative solution of the eigenvalue problem:
     a serial algorithm will be used

 
     Parallelization info
     --------------------
     sticks:   dense  smooth     PW     G-vecs:    dense   smooth      PW
     Min        3392    3392    878               210674   210674   27756
     Max        3393    3393    879               210675   210675   27759
     Sum        6785    6785   1757               421349   421349   55515
 


     bravais-lattice index     =            0
     lattice parameter (alat)  =      20.6591  a.u.
     unit-cell volume          =    8817.2783 (a.u.)^3
     number of atoms/cell      =           64
     number of atomic types    =            1
     number of electrons       =       256.00
     number of Kohn-Sham states=          154
     kinetic-energy cutoff     =      50.0000  Ry
     charge density cutoff     =     200.0000  Ry
     convergence threshold     =      1.0E-08
     mixing beta               =       0.7000
     number of iterations used =            8  plain     mixing
     Exchange-correlation      = PBE ( 1  4  3  4 0 0)

     celldm(1)=  20.659106  celldm(2)=   0.000000  celldm(3)=   0.000000
     celldm(4)=   0.000000  celldm(5)=   0.000000  celldm(6)=   0.000000

     crystal axes: (cart. coord. in units of alat)
               a(1) = (   1.000000   0.000000   0.000000 )  
               a(2) = (   0.000000   1.000000   0.000000 )  
               a(3) = (   0.000000   0.000000   1.000000 )  

     reciprocal axes: (cart. coord. in units 2 pi/alat)
               b(1) = (  1.000000  0.000000  0.000000 )  
               b(2) = (  0.000000  1.000000  0.000000 )  
               b(3) = (  0.000000  0.000000  1.000000 )  


     PseudoPot. # 1 for Si read from file:
     ~/kedar/softwares/SSSP_precision_pseudos/Si.pbe-n-rrkjus_psl.1.0.0.UPF
     MD5 check sum: Not computed, couldn't open file
     Pseudo is Ultrasoft + core correction, Zval =  4.0
     Generated using "atomic" code by A. Dal Corso v.5.1
     Using radial grid of 1141 points,  6 beta functions with: 
                l(1) =   0
                l(2) =   0
                l(3) =   1
                l(4) =   1
                l(5) =   2
                l(6) =   2
     Q(r) pseudized with 0 coefficients 


     atomic species   valence    mass     pseudopotential
        Si             4.00    28.08550     Si( 1.00)

     No symmetry found



   Cartesian axes

     site n.     atom                  positions (alat units)
         1           Si  tau(   1) = (   0.4404043   0.4375000   0.4375000  )
         2           Si  tau(   2) = (   0.9375000   0.4375000   0.4375000  )
         3           Si  tau(   3) = (   0.4375000   0.9375000   0.4375000  )
         4           Si  tau(   4) = (   0.9354464   0.9354464   0.4375000  )
         5           Si  tau(   5) = (   0.4375000   0.4375000   0.9375000  )
         6           Si  tau(   6) = (   0.9375000   0.4375000   0.9375000  )
         7           Si  tau(   7) = (   0.4375000   0.9375000   0.9375000  )
         8           Si  tau(   8) = (   0.9375000   0.9375000   0.9375000  )
         9           Si  tau(   9) = (   0.4375000   0.1875000   0.1875000  )
        10           Si  tau(  10) = (   0.9375000   0.1875000   0.1875000  )
        11           Si  tau(  11) = (   0.4375000   0.6875000   0.1875000  )
        12           Si  tau(  12) = (   0.9375000   0.6875000   0.1875000  )
        13           Si  tau(  13) = (   0.4375000   0.1875000   0.6875000  )
        14           Si  tau(  14) = (   0.9375000   0.1875000   0.6875000  )
        15           Si  tau(  15) = (   0.4375000   0.6875000   0.6875000  )
        16           Si  tau(  16) = (   0.9375000   0.6875000   0.6875000  )
        17           Si  tau(  17) = (   0.1875000   0.4375000   0.1875000  )
        18           Si  tau(  18) = (   0.6875000   0.4375000   0.1875000  )
        19           Si  tau(  19) = (   0.1875000   0.9375000   0.1875000  )
        20           Si  tau(  20) = (   0.6875000   0.9375000   0.1875000  )
        21           Si  tau(  21) = (   0.1875000   0.4375000   0.6875000  )
        22           Si  tau(  22) = (   0.6875000   0.4375000   0.6875000  )
        23           Si  tau(  23) = (   0.1875000   0.9375000   0.6875000  )
        24           Si  tau(  24) = (   0.6875000   0.9375000   0.6875000  )
        25           Si  tau(  25) = (   0.1875000   0.1875000   0.4375000  )
        26           Si  tau(  26) = (   0.6875000   0.1875000   0.4375000  )
        27           Si  tau(  27) = (   0.1875000   0.6875000   0.4375000  )
        28           Si  tau(  28) = (   0.6875000   0.6875000   0.4375000  )
        29           Si  tau(  29) = (   0.1875000   0.1875000   0.9375000  )
        30           Si  tau(  30) = (   0.6875000   0.1875000   0.9375000  )
        31           Si  tau(  31) = (   0.1875000   0.6875000   0.9375000  )
        32           Si  tau(  32) = (   0.6875000   0.6875000   0.9375000  )
        33           Si  tau(  33) = (   0.0625000   0.0625000   0.0625000  )
        34           Si  tau(  34) = (   0.5625000   0.0625000   0.0625000  )
        35           Si  tau(  35) = (   0.0625000   0.5625000   0.0625000  )
        36           Si  tau(  36) = (   0.5625000   0.5625000   0.0625000  )
        37           Si  tau(  37) = (   0.0625000   0.0625000   0.5625000  )
        38           Si  tau(  38) = (   0.5625000   0.0625000   0.5625000  )
        39           Si  tau(  39) = (   0.0625000   0.5625000   0.5625000  )
        40           Si  tau(  40) = (   0.5625000   0.5625000   0.5625000  )
        41           Si  tau(  41) = (   0.0625000   0.3125000   0.3125000  )
        42           Si  tau(  42) = (   0.5625000   0.3125000   0.3125000  )
        43           Si  tau(  43) = (   0.0625000   0.8125000   0.3125000  )
        44           Si  tau(  44) = (   0.5625000   0.8125000   0.3125000  )
        45           Si  tau(  45) = (   0.0625000   0.3125000   0.8125000  )
        46           Si  tau(  46) = (   0.5625000   0.3125000   0.8125000  )
        47           Si  tau(  47) = (   0.0625000   0.8125000   0.8125000  )
        48           Si  tau(  48) = (   0.5625000   0.8125000   0.8125000  )
        49           Si  tau(  49) = (   0.3125000   0.0625000   0.3125000  )
        50           Si  tau(  50) = (   0.8125000   0.0625000   0.3125000  )
        51           Si  tau(  51) = (   0.3125000   0.5625000   0.3125000  )
        52           Si  tau(  52) = (   0.8125000   0.5625000   0.3125000  )
        53           Si  tau(  53) = (   0.3125000   0.0625000   0.8125000  )
        54           Si  tau(  54) = (   0.8125000   0.0625000   0.8125000  )
        55           Si  tau(  55) = (   0.3125000   0.5625000   0.8125000  )
        56           Si  tau(  56) = (   0.8125000   0.5625000   0.8125000  )
        57           Si  tau(  57) = (   0.3125000   0.3125000   0.0625000  )
        58           Si  tau(  58) = (   0.8125000   0.3125000   0.0625000  )
        59           Si  tau(  59) = (   0.3125000   0.8125000   0.0625000  )
        60           Si  tau(  60) = (   0.8125000   0.8125000   0.0625000  )
        61           Si  tau(  61) = (   0.3125000   0.3125000   0.5625000  )
        62           Si  tau(  62) = (   0.8125000   0.3125000   0.5625000  )
        63           Si  tau(  63) = (   0.3125000   0.8125000   0.5625000  )
        64           Si  tau(  64) = (   0.8125000   0.8125000   0.5625000  )

     number of k points=     4  gaussian smearing, width (Ry)=  0.0100
                       cart. coord. in units 2pi/alat
        k(    1) = (   0.2500000   0.2500000   0.2500000), wk =   0.5000000
        k(    2) = (  -0.2500000  -0.2500000   0.2500000), wk =   0.5000000
        k(    3) = (  -0.2500000   0.2500000  -0.2500000), wk =   0.5000000
        k(    4) = (   0.2500000  -0.2500000  -0.2500000), wk =   0.5000000

     Dense  grid:   421349 G-vectors     FFT dimensions: (  96,  96,  96)

     Estimated max dynamical RAM per process >       2.05 GB

     Estimated total dynamical RAM >       4.11 GB

     Check: negative/imaginary core charge=   -0.000001    0.000000

     Initial potential from superposition of free atoms

     starting charge  255.96421, renormalised to  256.00000
     Starting wfcs are  256 randomized atomic wfcs

     total cpu time spent up to now is       69.3 secs

     Self-consistent Calculation

     iteration #  1     ecut=    50.00 Ry     beta= 0.70
     Davidson diagonalization with overlap
     ethr =  1.00E-02,  avg # of iterations =  3.0

     Threshold (ethr) on eigenvalues was too large:
     Diagonalizing with lowered threshold

     Davidson diagonalization with overlap
     ethr =  6.78E-04,  avg # of iterations =  2.0

     total cpu time spent up to now is      339.8 secs

     total energy              =    -730.80291400 Ry
     Harris-Foulkes estimate   =    -731.20906153 Ry
     estimated scf accuracy    <       1.72060360 Ry

     iteration #  2     ecut=    50.00 Ry     beta= 0.70
     Davidson diagonalization with overlap
     ethr =  6.72E-04,  avg # of iterations =  1.0

     total cpu time spent up to now is      443.1 secs

     total energy              =    -730.86493556 Ry
     Harris-Foulkes estimate   =    -730.87090205 Ry
     estimated scf accuracy    <       0.08012321 Ry

     iteration #  3     ecut=    50.00 Ry     beta= 0.70
     Davidson diagonalization with overlap
     ethr =  3.13E-05,  avg # of iterations = 10.8

     total cpu time spent up to now is      632.6 secs

     total energy              =    -730.87933635 Ry
     Harris-Foulkes estimate   =    -730.88058250 Ry
     estimated scf accuracy    <       0.00274447 Ry

     iteration #  4     ecut=    50.00 Ry     beta= 0.70
     Davidson diagonalization with overlap
     ethr =  1.07E-06,  avg # of iterations =  4.0

     total cpu time spent up to now is      731.0 secs

     total energy              =    -730.87964654 Ry
     Harris-Foulkes estimate   =    -730.88060880 Ry
     estimated scf accuracy    <       0.00280315 Ry

     iteration #  5     ecut=    50.00 Ry     beta= 0.70
     Davidson diagonalization with overlap
     ethr =  1.07E-06,  avg # of iterations =  2.0

     total cpu time spent up to now is      807.7 secs

     total energy              =    -730.87998996 Ry
     Harris-Foulkes estimate   =    -730.88009488 Ry
     estimated scf accuracy    <       0.00030255 Ry

     iteration #  6     ecut=    50.00 Ry     beta= 0.70
     Davidson diagonalization with overlap
     ethr =  1.18E-07,  avg # of iterations =  3.0

     total cpu time spent up to now is      892.2 secs

     total energy              =    -730.88001254 Ry
     Harris-Foulkes estimate   =    -730.88004408 Ry
     estimated scf accuracy    <       0.00008031 Ry

     iteration #  7     ecut=    50.00 Ry     beta= 0.70
     Davidson diagonalization with overlap
     ethr =  3.14E-08,  avg # of iterations =  2.0

     total cpu time spent up to now is      972.2 secs

     total energy              =    -730.88002414 Ry
     Harris-Foulkes estimate   =    -730.88002456 Ry
     estimated scf accuracy    <       0.00000269 Ry

     iteration #  8     ecut=    50.00 Ry     beta= 0.70
     Davidson diagonalization with overlap
     ethr =  1.05E-09,  avg # of iterations =  3.0

     total cpu time spent up to now is     1069.3 secs

     total energy              =    -730.88002489 Ry
     Harris-Foulkes estimate   =    -730.88002536 Ry
     estimated scf accuracy    <       0.00000239 Ry

     iteration #  9     ecut=    50.00 Ry     beta= 0.70
     Davidson diagonalization with overlap
     ethr =  9.32E-10,  avg # of iterations =  2.0

     total cpu time spent up to now is     1146.1 secs

     total energy              =    -730.88002481 Ry
     Harris-Foulkes estimate   =    -730.88002513 Ry
     estimated scf accuracy    <       0.00000107 Ry

     iteration # 10     ecut=    50.00 Ry     beta= 0.70
     Davidson diagonalization with overlap
     ethr =  4.16E-10,  avg # of iterations =  1.0

     total cpu time spent up to now is     1214.8 secs

     total energy              =    -730.88002480 Ry
     Harris-Foulkes estimate   =    -730.88002487 Ry
     estimated scf accuracy    <       0.00000018 Ry

     iteration # 11     ecut=    50.00 Ry     beta= 0.70
     Davidson diagonalization with overlap
     ethr =  7.21E-11,  avg # of iterations =  3.0

     total cpu time spent up to now is     1299.9 secs

     total energy              =    -730.88002482 Ry
     Harris-Foulkes estimate   =    -730.88002483 Ry
     estimated scf accuracy    <       0.00000001 Ry

     iteration # 12     ecut=    50.00 Ry     beta= 0.70
     Davidson diagonalization with overlap
     ethr =  4.99E-12,  avg # of iterations =  3.0

     total cpu time spent up to now is     1386.6 secs

     End of self-consistent calculation

          k = 0.2500 0.2500 0.2500 ( 52563 PWs)   bands (ev):

    -5.6275  -5.1035  -5.0984  -5.0960  -4.6043  -4.5993  -4.5971  -4.1675
    -4.0714  -4.0666  -4.0640  -3.6598  -3.6539  -3.6514  -3.6501  -3.6482
    -3.6447  -3.4610  -3.4600  -3.4565  -2.9679  -2.9635  -2.9601  -2.5967
    -2.5950  -2.5913  -2.4343  -2.4278  -2.4264  -2.4250  -2.4229  -2.4191
    -0.8930  -0.8868  -0.8845  -0.8825  -0.8804  -0.8793  -0.7889  -0.7868
    -0.7835  -0.6714  -0.6685  -0.6655  -0.5898  -0.5822  -0.5713   0.1208
     0.1981   0.2021   0.2044   0.2048   0.2062   0.2101   1.0718   1.0795
     1.0874   1.4087   1.4121   1.4150   2.0175   2.0203   2.0216   2.0230
     2.0249   2.0273   2.0787   2.0824   2.0829   2.6326   2.6333   2.6352
     2.7292   2.7323   2.7359   2.7372   2.7402   2.7419   2.7865   2.7901
     2.7923   3.0947   3.0986   3.1000   3.1014   3.1040   3.1053   3.3631
     3.3649   3.3656   3.3763   3.3791   3.3816   3.7232   3.7287   3.7314
     3.7488   3.7498   3.7538   3.8301   3.8325   3.8340   4.1003   4.1043
     4.1074   4.1080   4.1100   4.1162   4.1440   4.1468   4.1484   4.4078
     4.4615   4.4636   4.4649   4.7046   4.7070   4.7091   4.7660   4.7722
     4.7816   4.9267   4.9312   5.2332   5.2360   5.2388   5.7141   5.7192
     6.9282   6.9295   6.9320   7.3665   7.3706   7.3741   7.5964   7.8524
     7.8562   7.8593   7.9837   7.9868   7.9882   8.1419   8.1438   8.1482
     8.1627   8.1650   8.1673   8.3904   8.3925   8.3967   8.3972   8.4019
     8.4037   8.4442

          k =-0.2500-0.2500 0.2500 ( 52563 PWs)   bands (ev):

    -5.6275  -5.1027  -5.1001  -5.0953  -4.6034  -4.6010  -4.5963  -4.1670
    -4.0704  -4.0679  -4.0632  -3.6584  -3.6546  -3.6524  -3.6512  -3.6493
    -3.6434  -3.4622  -3.4588  -3.4573  -2.9668  -2.9632  -2.9591  -2.5973
    -2.5937  -2.5924  -2.4329  -2.4291  -2.4271  -2.4257  -2.4240  -2.4176
    -0.8893  -0.8883  -0.8855  -0.8834  -0.8825  -0.8762  -0.7894  -0.7852
    -0.7837  -0.6707  -0.6676  -0.6649  -0.5924  -0.5821  -0.5741   0.1193
     0.1991   0.2029   0.2043   0.2046   0.2076   0.2110   1.0706   1.0788
     1.0863   1.4088   1.4119   1.4152   2.0174   2.0202   2.0220   2.0234
     2.0248   2.0272   2.0801   2.0807   2.0846   2.6314   2.6333   2.6340
     2.7308   2.7325   2.7359   2.7372   2.7407   2.7428   2.7877   2.7898
     2.7943   3.0959   3.0973   3.0998   3.1014   3.1028   3.1065   3.3635
     3.3651   3.3665   3.3777   3.3788   3.3821   3.7223   3.7270   3.7314
     3.7479   3.7498   3.7508   3.8308   3.8323   3.8350   4.0982   4.1043
     4.1064   4.1070   4.1097   4.1138   4.1448   4.1462   4.1497   4.4061
     4.4628   4.4639   4.4663   4.7056   4.7077   4.7099   4.7633   4.7716
     4.7788   4.9272   4.9318   5.2344   5.2369   5.2402   5.7152   5.7202
     6.9284   6.9311   6.9324   7.3669   7.3707   7.3746   7.5970   7.8532
     7.8566   7.8602   7.9835   7.9851   7.9884   8.1406   8.1458   8.1480
     8.1637   8.1650   8.1673   8.3896   8.3917   8.3958   8.3969   8.4008
     8.4031   8.4451

          k =-0.2500 0.2500-0.2500 ( 52563 PWs)   bands (ev):

    -5.6275  -5.1029  -5.0989  -5.0960  -4.6038  -4.6001  -4.5968  -4.1676
    -4.0711  -4.0674  -4.0642  -3.6597  -3.6546  -3.6527  -3.6512  -3.6478
    -3.6410  -3.4608  -3.4594  -3.4565  -2.9680  -2.9653  -2.9600  -2.5959
    -2.5950  -2.5919  -2.4339  -2.4291  -2.4276  -2.4260  -2.4220  -2.4163
    -0.8936  -0.8885  -0.8871  -0.8839  -0.8787  -0.8755  -0.7886  -0.7867
    -0.7844  -0.6714  -0.6686  -0.6670  -0.5833  -0.5817  -0.5745   0.1220
     0.1961   0.1990   0.1998   0.2045   0.2109   0.2128   1.0747   1.0808
     1.0854   1.4097   1.4124   1.4138   2.0188   2.0199   2.0217   2.0233
     2.0247   2.0260   2.0785   2.0805   2.0839   2.6333   2.6337   2.6355
     2.7294   2.7318   2.7354   2.7371   2.7399   2.7408   2.7855   2.7889
     2.7926   3.0947   3.0975   3.0994   3.1009   3.1050   3.1068   3.3624
     3.3643   3.3650   3.3766   3.3791   3.3811   3.7250   3.7289   3.7324
     3.7495   3.7503   3.7546   3.8278   3.8324   3.8353   4.1043   4.1048
     4.1076   4.1091   4.1104   4.1143   4.1414   4.1463   4.1506   4.4089
     4.4612   4.4634   4.4638   4.7019   4.7068   4.7099   4.7710   4.7737
     4.7792   4.9271   4.9303   5.2294   5.2360   5.2403   5.7142   5.7178
     6.9284   6.9286   6.9312   7.3631   7.3711   7.3761   7.5959   7.8501
     7.8559   7.8603   7.9846   7.9872   7.9885   8.1410   8.1442   8.1480
     8.1630   8.1648   8.1665   8.3916   8.3935   8.3969   8.3987   8.4018
     8.4038   8.4430

          k = 0.2500-0.2500-0.2500 ( 52563 PWs)   bands (ev):

    -5.6274  -5.1026  -5.0998  -5.0957  -4.6036  -4.6005  -4.5966  -4.1665
    -4.0705  -4.0675  -4.0635  -3.6622  -3.6550  -3.6514  -3.6499  -3.6481
    -3.6434  -3.4621  -3.4588  -3.4579  -2.9669  -2.9618  -2.9590  -2.5969
    -2.5942  -2.5927  -2.4356  -2.4297  -2.4261  -2.4243  -2.4229  -2.4180
    -0.8937  -0.8900  -0.8840  -0.8811  -0.8800  -0.8757  -0.7879  -0.7851
    -0.7841  -0.6693  -0.6675  -0.6650  -0.5893  -0.5824  -0.5808   0.1182
     0.1964   0.1983   0.2045   0.2094   0.2105   0.2130   1.0727   1.0776
     1.0833   1.4101   1.4116   1.4143   2.0189   2.0203   2.0216   2.0233
     2.0250   2.0262   2.0794   2.0824   2.0845   2.6306   2.6328   2.6332
     2.7321   2.7330   2.7360   2.7376   2.7411   2.7425   2.7875   2.7909
     2.7954   3.0943   3.0963   3.1003   3.1018   3.1039   3.1066   3.3641
     3.3653   3.3660   3.3779   3.3799   3.3826   3.7232   3.7264   3.7309
     3.7459   3.7489   3.7500   3.8296   3.8326   3.8369   4.0994   4.1038
     4.1048   4.1067   4.1093   4.1101   4.1439   4.1464   4.1519   4.4048
     4.4640   4.4645   4.4668   4.7044   4.7074   4.7128   4.7656   4.7705
     4.7732   4.9284   4.9315   5.2331   5.2369   5.2441   5.7167   5.7201
     6.9291   6.9318   6.9323   7.3648   7.3702   7.3776   7.5974   7.8522
     7.8569   7.8622   7.9839   7.9844   7.9877   8.1409   8.1455   8.1482
     8.1646   8.1650   8.1669   8.3896   8.3917   8.3952   8.3970   8.3998
     8.4021   8.4453

     the Fermi energy is     6.3211 ev

!    total energy              =    -730.88002482 Ry
     Harris-Foulkes estimate   =    -730.88002483 Ry
     estimated scf accuracy    <          3.4E-09 Ry

     The total energy is the sum of the following terms:

     one-electron contribution =     160.47267623 Ry
     hartree contribution      =      35.78744315 Ry
     xc contribution           =    -393.13399044 Ry
     ewald contribution        =    -534.00615378 Ry
     smearing contrib. (-TS)   =      -0.00000000 Ry

     convergence has been achieved in  12 iterations

     Forces acting on atoms (cartesian axes, Ry/au):

     atom    1 type  1   force =    -0.01605067    0.00000283    0.00000091
     atom    2 type  1   force =    -0.00001506   -0.00001775   -0.00000002
     atom    3 type  1   force =     0.00003773   -0.00003871    0.00000141
     atom    4 type  1   force =     0.01139282    0.01140019   -0.00061328
     atom    5 type  1   force =     0.00003675   -0.00001962   -0.00000017
     atom    6 type  1   force =     0.00032879    0.00000537    0.00000037
     atom    7 type  1   force =    -0.00047241    0.00033734   -0.00000117
     atom    8 type  1   force =    -0.00001291   -0.00004126    0.00000008
     atom    9 type  1   force =    -0.00052621    0.00007734    0.00006705
     atom   10 type  1   force =     0.00045489   -0.00023719    0.00024874
     atom   11 type  1   force =    -0.00052195    0.00007065   -0.00006259
     atom   12 type  1   force =     0.00045473   -0.00023539   -0.00025142
     atom   13 type  1   force =    -0.00053490   -0.00013513    0.00017044
     atom   14 type  1   force =     0.00029635   -0.00009430   -0.00007337
     atom   15 type  1   force =    -0.00053776   -0.00013942   -0.00017483
     atom   16 type  1   force =     0.00029398   -0.00009782    0.00007161
     atom   17 type  1   force =     0.00019337   -0.00010598    0.00017789
     atom   18 type  1   force =     0.00019940   -0.00010959   -0.00018335
     atom   19 type  1   force =    -0.00020352    0.00044347    0.00016132
     atom   20 type  1   force =    -0.00019997    0.00044288   -0.00016419
     atom   21 type  1   force =     0.00020592    0.00010008   -0.00016340
     atom   22 type  1   force =     0.00021170    0.00010670    0.00016895
     atom   23 type  1   force =    -0.00004013    0.00030335   -0.00000580
     atom   24 type  1   force =    -0.00004490    0.00030277    0.00000376
     atom   25 type  1   force =    -0.00008848   -0.00009544   -0.00026697
     atom   26 type  1   force =     0.00023225   -0.00023619   -0.00011599
     atom   27 type  1   force =     0.00022381   -0.00022977    0.00010748
     atom   28 type  1   force =    -0.00009571   -0.00010335    0.00027551
     atom   29 type  1   force =     0.00006729   -0.00005430   -0.00002269
     atom   30 type  1   force =    -0.00004309   -0.00000895   -0.00000985
     atom   31 type  1   force =    -0.00004263   -0.00000869    0.00000995
     atom   32 type  1   force =     0.00006780   -0.00005490    0.00002222
     atom   33 type  1   force =    -0.00001338    0.00003563   -0.00002078
     atom   34 type  1   force =     0.00021751   -0.00017258   -0.00001118
     atom   35 type  1   force =    -0.00017620   -0.00001212   -0.00001397
     atom   36 type  1   force =    -0.00006591    0.00004012   -0.00000572
     atom   37 type  1   force =    -0.00438872   -0.00438987   -0.00341958
     atom   38 type  1   force =    -0.00007847    0.00005245   -0.00001275
     atom   39 type  1   force =     0.00000397    0.00001751   -0.00002535
     atom   40 type  1   force =     0.00391857    0.00269535    0.00269576
     atom   41 type  1   force =     0.00005622   -0.00000519   -0.00002754
     atom   42 type  1   force =     0.00395537   -0.00273821   -0.00273423
     atom   43 type  1   force =    -0.00090664   -0.00090258    0.00001741
     atom   44 type  1   force =    -0.00002477    0.00002979   -0.00005759
     atom   45 type  1   force =    -0.00013439   -0.00002684   -0.00002466
     atom   46 type  1   force =    -0.00002459   -0.00001367   -0.00003849
     atom   47 type  1   force =     0.00005302    0.00004668   -0.00003104
     atom   48 type  1   force =     0.00025751   -0.00019035   -0.00003100
     atom   49 type  1   force =    -0.00002529    0.00003107    0.00006035
     atom   50 type  1   force =    -0.00084844   -0.00096036    0.00007485
     atom   51 type  1   force =     0.00383723   -0.00251304    0.00251122
     atom   52 type  1   force =     0.00005827   -0.00000383    0.00002746
     atom   53 type  1   force =     0.00025584   -0.00018960    0.00002925
     atom   54 type  1   force =     0.00005745    0.00004282    0.00002788
     atom   55 type  1   force =    -0.00002126   -0.00001650    0.00003554
     atom   56 type  1   force =    -0.00013379   -0.00002935    0.00002579
     atom   57 type  1   force =    -0.00006511    0.00004146    0.00000721
     atom   58 type  1   force =    -0.00017392   -0.00000879    0.00001091
     atom   59 type  1   force =     0.00021401   -0.00017446    0.00000957
     atom   60 type  1   force =    -0.00001357    0.00003399    0.00002199
     atom   61 type  1   force =     0.00380286    0.00247286   -0.00247274
     atom   62 type  1   force =     0.00000381    0.00001649    0.00002398
     atom   63 type  1   force =    -0.00007649    0.00005134    0.00001093
     atom   64 type  1   force =    -0.00478798   -0.00478945    0.00395793

     Total force =     0.027421     Total SCF correction =     0.000107

     Writing output data file pwscf.save/
 
     init_run     :     41.79s CPU     68.49s WALL (       1 calls)
     electrons    :   1068.38s CPU   1317.33s WALL (       1 calls)
     forces       :     19.49s CPU     20.61s WALL (       1 calls)

     Called by init_run:
     wfcinit      :     40.18s CPU     65.42s WALL (       1 calls)
     potinit      :      0.34s CPU      0.64s WALL (       1 calls)
     hinit0       :      0.47s CPU      0.82s WALL (       1 calls)

     Called by electrons:
     c_bands      :    908.48s CPU   1118.37s WALL (      13 calls)
     sum_band     :    145.16s CPU    178.29s WALL (      13 calls)
     v_of_rho     :      3.73s CPU      4.65s WALL (      13 calls)
     newd         :     10.68s CPU     16.47s WALL (      13 calls)
     mix_rho      :      1.18s CPU      1.28s WALL (      13 calls)

     Called by c_bands:
     init_us_2    :     12.06s CPU     13.88s WALL (     112 calls)
     cegterg      :    818.52s CPU   1010.76s WALL (      52 calls)

     Called by sum_band:
     sum_band:bec :      0.06s CPU      0.07s WALL (      52 calls)
     addusdens    :     12.28s CPU     18.25s WALL (      13 calls)

     Called by *egterg:
     h_psi        :    599.42s CPU    749.15s WALL (     215 calls)
     s_psi        :    123.00s CPU    149.85s WALL (     215 calls)
     g_psi        :      1.08s CPU      1.32s WALL (     159 calls)
     cdiaghg      :     10.29s CPU     13.57s WALL (     207 calls)

     Called by h_psi:
     h_psi:pot    :    597.39s CPU    744.33s WALL (     215 calls)
     h_psi:calbec :    127.13s CPU    156.58s WALL (     215 calls)
     vloc_psi     :    347.31s CPU    437.81s WALL (     215 calls)
     add_vuspsi   :    122.94s CPU    149.93s WALL (     215 calls)

     General routines
     calbec       :    186.47s CPU    225.36s WALL (     283 calls)
     fft          :      3.22s CPU      4.25s WALL (     156 calls)
     ffts         :      0.18s CPU      0.22s WALL (      13 calls)
     fftw         :    345.60s CPU    442.08s WALL (   51026 calls)
 
     Parallel routines
     fft_scatt_xy :     71.67s CPU     80.60s WALL (   51195 calls)
     fft_scatt_yz :     88.65s CPU    150.37s WALL (   51195 calls)
 
     PWSCF        : 18m50.43s CPU    23m27.93s WALL

 
   This run was terminated on:  19:30: 0  13Feb2020            

=------------------------------------------------------------------------------=
   JOB DONE.
=------------------------------------------------------------------------------=
