
     Program PWSCF v.6.3MaX starts on 14Feb2020 at 13:35:18 

     This program is part of the open-source Quantum ESPRESSO suite
     for quantum simulation of materials; please cite
         "P. Giannozzi et al., J. Phys.:Condens. Matter 21 395502 (2009);
         "P. Giannozzi et al., J. Phys.:Condens. Matter 29 465901 (2017);
          URL http://www.quantum-espresso.org", 
     in publications or presentations arising from this work. More details at
     http://www.quantum-espresso.org/quote

     Parallel version (MPI), running on     2 processors

     MPI processes distributed on     1 nodes
     R & G space division:  proc/nbgrp/npool/nimage =       2
     Waiting for input...
     Reading input from standard input

     Current dimensions of program PWSCF are:
     Max number of different atomic species (ntypx) = 10
     Max number of k-points (npk) =  40000
     Max angular momentum in pseudopotentials (lmaxx) =  3

     Subspace diagonalization in iterative solution of the eigenvalue problem:
     a serial algorithm will be used

 
     Parallelization info
     --------------------
     sticks:   dense  smooth     PW     G-vecs:    dense   smooth      PW
     Min        3392    3392    878               210674   210674   27756
     Max        3393    3393    879               210675   210675   27759
     Sum        6785    6785   1757               421349   421349   55515
 


     bravais-lattice index     =            0
     lattice parameter (alat)  =      20.6591  a.u.
     unit-cell volume          =    8817.2783 (a.u.)^3
     number of atoms/cell      =           64
     number of atomic types    =            1
     number of electrons       =       256.00
     number of Kohn-Sham states=          154
     kinetic-energy cutoff     =      50.0000  Ry
     charge density cutoff     =     200.0000  Ry
     convergence threshold     =      1.0E-08
     mixing beta               =       0.7000
     number of iterations used =            8  plain     mixing
     Exchange-correlation      = PBE ( 1  4  3  4 0 0)

     celldm(1)=  20.659106  celldm(2)=   0.000000  celldm(3)=   0.000000
     celldm(4)=   0.000000  celldm(5)=   0.000000  celldm(6)=   0.000000

     crystal axes: (cart. coord. in units of alat)
               a(1) = (   1.000000   0.000000   0.000000 )  
               a(2) = (   0.000000   1.000000   0.000000 )  
               a(3) = (   0.000000   0.000000   1.000000 )  

     reciprocal axes: (cart. coord. in units 2 pi/alat)
               b(1) = (  1.000000  0.000000  0.000000 )  
               b(2) = (  0.000000  1.000000  0.000000 )  
               b(3) = (  0.000000  0.000000  1.000000 )  


     PseudoPot. # 1 for Si read from file:
     ~/kedar/softwares/SSSP_precision_pseudos/Si.pbe-n-rrkjus_psl.1.0.0.UPF
     MD5 check sum: Not computed, couldn't open file
     Pseudo is Ultrasoft + core correction, Zval =  4.0
     Generated using "atomic" code by A. Dal Corso v.5.1
     Using radial grid of 1141 points,  6 beta functions with: 
                l(1) =   0
                l(2) =   0
                l(3) =   1
                l(4) =   1
                l(5) =   2
                l(6) =   2
     Q(r) pseudized with 0 coefficients 


     atomic species   valence    mass     pseudopotential
        Si             4.00    28.08550     Si( 1.00)

     No symmetry found



   Cartesian axes

     site n.     atom                  positions (alat units)
         1           Si  tau(   1) = (   0.4404043   0.4375000   0.4375000  )
         2           Si  tau(   2) = (   0.9375000   0.4375000   0.4375000  )
         3           Si  tau(   3) = (   0.4375000   0.9375000   0.4375000  )
         4           Si  tau(   4) = (   0.9375000   0.9375000   0.4375000  )
         5           Si  tau(   5) = (   0.4375000   0.4375000   0.9375000  )
         6           Si  tau(   6) = (   0.9375000   0.4375000   0.9375000  )
         7           Si  tau(   7) = (   0.4375000   0.9375000   0.9375000  )
         8           Si  tau(   8) = (   0.9375000   0.9375000   0.9375000  )
         9           Si  tau(   9) = (   0.4375000   0.1875000   0.1875000  )
        10           Si  tau(  10) = (   0.9375000   0.1875000   0.1875000  )
        11           Si  tau(  11) = (   0.4375000   0.6875000   0.1875000  )
        12           Si  tau(  12) = (   0.9375000   0.6875000   0.1875000  )
        13           Si  tau(  13) = (   0.4375000   0.1875000   0.6875000  )
        14           Si  tau(  14) = (   0.9375000   0.1875000   0.6875000  )
        15           Si  tau(  15) = (   0.4375000   0.6875000   0.6875000  )
        16           Si  tau(  16) = (   0.9375000   0.6875000   0.6875000  )
        17           Si  tau(  17) = (   0.1875000   0.4375000   0.1875000  )
        18           Si  tau(  18) = (   0.6875000   0.4375000   0.1875000  )
        19           Si  tau(  19) = (   0.1875000   0.9375000   0.1875000  )
        20           Si  tau(  20) = (   0.6875000   0.9375000   0.1845957  )
        21           Si  tau(  21) = (   0.1875000   0.4375000   0.6875000  )
        22           Si  tau(  22) = (   0.6875000   0.4375000   0.6875000  )
        23           Si  tau(  23) = (   0.1875000   0.9375000   0.6875000  )
        24           Si  tau(  24) = (   0.6875000   0.9375000   0.6875000  )
        25           Si  tau(  25) = (   0.1875000   0.1875000   0.4375000  )
        26           Si  tau(  26) = (   0.6875000   0.1875000   0.4375000  )
        27           Si  tau(  27) = (   0.1875000   0.6875000   0.4375000  )
        28           Si  tau(  28) = (   0.6875000   0.6875000   0.4375000  )
        29           Si  tau(  29) = (   0.1875000   0.1875000   0.9375000  )
        30           Si  tau(  30) = (   0.6875000   0.1875000   0.9375000  )
        31           Si  tau(  31) = (   0.1875000   0.6875000   0.9375000  )
        32           Si  tau(  32) = (   0.6875000   0.6875000   0.9375000  )
        33           Si  tau(  33) = (   0.0625000   0.0625000   0.0625000  )
        34           Si  tau(  34) = (   0.5625000   0.0625000   0.0625000  )
        35           Si  tau(  35) = (   0.0625000   0.5625000   0.0625000  )
        36           Si  tau(  36) = (   0.5625000   0.5625000   0.0625000  )
        37           Si  tau(  37) = (   0.0625000   0.0625000   0.5625000  )
        38           Si  tau(  38) = (   0.5625000   0.0625000   0.5625000  )
        39           Si  tau(  39) = (   0.0625000   0.5625000   0.5625000  )
        40           Si  tau(  40) = (   0.5625000   0.5625000   0.5625000  )
        41           Si  tau(  41) = (   0.0625000   0.3125000   0.3125000  )
        42           Si  tau(  42) = (   0.5625000   0.3125000   0.3125000  )
        43           Si  tau(  43) = (   0.0625000   0.8125000   0.3125000  )
        44           Si  tau(  44) = (   0.5625000   0.8125000   0.3125000  )
        45           Si  tau(  45) = (   0.0625000   0.3125000   0.8125000  )
        46           Si  tau(  46) = (   0.5625000   0.3125000   0.8125000  )
        47           Si  tau(  47) = (   0.0625000   0.8125000   0.8125000  )
        48           Si  tau(  48) = (   0.5625000   0.8125000   0.8125000  )
        49           Si  tau(  49) = (   0.3125000   0.0625000   0.3125000  )
        50           Si  tau(  50) = (   0.8125000   0.0625000   0.3125000  )
        51           Si  tau(  51) = (   0.3125000   0.5625000   0.3125000  )
        52           Si  tau(  52) = (   0.8125000   0.5625000   0.3125000  )
        53           Si  tau(  53) = (   0.3125000   0.0625000   0.8125000  )
        54           Si  tau(  54) = (   0.8125000   0.0625000   0.8125000  )
        55           Si  tau(  55) = (   0.3125000   0.5625000   0.8125000  )
        56           Si  tau(  56) = (   0.8125000   0.5625000   0.8125000  )
        57           Si  tau(  57) = (   0.3125000   0.3125000   0.0625000  )
        58           Si  tau(  58) = (   0.8125000   0.3125000   0.0625000  )
        59           Si  tau(  59) = (   0.3125000   0.8125000   0.0625000  )
        60           Si  tau(  60) = (   0.8125000   0.8125000   0.0625000  )
        61           Si  tau(  61) = (   0.3125000   0.3125000   0.5625000  )
        62           Si  tau(  62) = (   0.8125000   0.3125000   0.5625000  )
        63           Si  tau(  63) = (   0.3125000   0.8125000   0.5625000  )
        64           Si  tau(  64) = (   0.8125000   0.8125000   0.5625000  )

     number of k points=     4  gaussian smearing, width (Ry)=  0.0100
                       cart. coord. in units 2pi/alat
        k(    1) = (   0.2500000   0.2500000   0.2500000), wk =   0.5000000
        k(    2) = (  -0.2500000  -0.2500000   0.2500000), wk =   0.5000000
        k(    3) = (  -0.2500000   0.2500000  -0.2500000), wk =   0.5000000
        k(    4) = (   0.2500000  -0.2500000  -0.2500000), wk =   0.5000000

     Dense  grid:   421349 G-vectors     FFT dimensions: (  96,  96,  96)

     Estimated max dynamical RAM per process >       2.05 GB

     Estimated total dynamical RAM >       4.11 GB

     Check: negative/imaginary core charge=   -0.000001    0.000000

     Initial potential from superposition of free atoms

     starting charge  255.96421, renormalised to  256.00000
     Starting wfcs are  256 randomized atomic wfcs

     total cpu time spent up to now is       88.8 secs

     Self-consistent Calculation

     iteration #  1     ecut=    50.00 Ry     beta= 0.70
     Davidson diagonalization with overlap
     ethr =  1.00E-02,  avg # of iterations =  3.0

     Threshold (ethr) on eigenvalues was too large:
     Diagonalizing with lowered threshold

     Davidson diagonalization with overlap
     ethr =  6.78E-04,  avg # of iterations =  2.0

     total cpu time spent up to now is      411.7 secs

     total energy              =    -730.80278374 Ry
     Harris-Foulkes estimate   =    -731.20888139 Ry
     estimated scf accuracy    <       1.72045424 Ry

     iteration #  2     ecut=    50.00 Ry     beta= 0.70
     Davidson diagonalization with overlap
     ethr =  6.72E-04,  avg # of iterations =  1.0

     total cpu time spent up to now is      522.9 secs

     total energy              =    -730.86487763 Ry
     Harris-Foulkes estimate   =    -730.87085083 Ry
     estimated scf accuracy    <       0.08013255 Ry

     iteration #  3     ecut=    50.00 Ry     beta= 0.70
     Davidson diagonalization with overlap
     ethr =  3.13E-05,  avg # of iterations = 10.2

     total cpu time spent up to now is      722.9 secs

     total energy              =    -730.87935172 Ry
     Harris-Foulkes estimate   =    -730.88056948 Ry
     estimated scf accuracy    <       0.00271826 Ry

     iteration #  4     ecut=    50.00 Ry     beta= 0.70
     Davidson diagonalization with overlap
     ethr =  1.06E-06,  avg # of iterations =  6.8

     total cpu time spent up to now is      860.7 secs

     total energy              =    -730.87975537 Ry
     Harris-Foulkes estimate   =    -730.88047670 Ry
     estimated scf accuracy    <       0.00200912 Ry

     iteration #  5     ecut=    50.00 Ry     beta= 0.70
     Davidson diagonalization with overlap
     ethr =  7.85E-07,  avg # of iterations =  2.0

     total cpu time spent up to now is      975.6 secs

     total energy              =    -730.87999105 Ry
     Harris-Foulkes estimate   =    -730.88008643 Ry
     estimated scf accuracy    <       0.00027118 Ry

     iteration #  6     ecut=    50.00 Ry     beta= 0.70
     Davidson diagonalization with overlap
     ethr =  1.06E-07,  avg # of iterations =  3.0

     total cpu time spent up to now is     1108.2 secs

     total energy              =    -730.88001089 Ry
     Harris-Foulkes estimate   =    -730.88003541 Ry
     estimated scf accuracy    <       0.00006035 Ry

     iteration #  7     ecut=    50.00 Ry     beta= 0.70
     Davidson diagonalization with overlap
     ethr =  2.36E-08,  avg # of iterations =  2.0

     total cpu time spent up to now is     1229.1 secs

     total energy              =    -730.88002052 Ry
     Harris-Foulkes estimate   =    -730.88002101 Ry
     estimated scf accuracy    <       0.00000285 Ry

     iteration #  8     ecut=    50.00 Ry     beta= 0.70
     Davidson diagonalization with overlap
     ethr =  1.11E-09,  avg # of iterations =  3.0

     total cpu time spent up to now is     1322.9 secs

     total energy              =    -730.88002111 Ry
     Harris-Foulkes estimate   =    -730.88002152 Ry
     estimated scf accuracy    <       0.00000185 Ry

     iteration #  9     ecut=    50.00 Ry     beta= 0.70
     Davidson diagonalization with overlap
     ethr =  7.24E-10,  avg # of iterations =  2.0

     total cpu time spent up to now is     1437.9 secs

     total energy              =    -730.88002102 Ry
     Harris-Foulkes estimate   =    -730.88002125 Ry
     estimated scf accuracy    <       0.00000078 Ry

     iteration # 10     ecut=    50.00 Ry     beta= 0.70
     Davidson diagonalization with overlap
     ethr =  3.06E-10,  avg # of iterations =  1.0

     total cpu time spent up to now is     1550.4 secs

     total energy              =    -730.88002101 Ry
     Harris-Foulkes estimate   =    -730.88002108 Ry
     estimated scf accuracy    <       0.00000018 Ry

     iteration # 11     ecut=    50.00 Ry     beta= 0.70
     Davidson diagonalization with overlap
     ethr =  6.91E-11,  avg # of iterations =  3.0

     total cpu time spent up to now is     1683.9 secs

     End of self-consistent calculation

          k = 0.2500 0.2500 0.2500 ( 52563 PWs)   bands (ev):

    -5.6274  -5.1029  -5.0993  -5.0958  -4.6038  -4.6002  -4.5966  -4.1670
    -4.0707  -4.0673  -4.0641  -3.6589  -3.6547  -3.6514  -3.6513  -3.6480
    -3.6439  -3.4639  -3.4593  -3.4547  -2.9673  -2.9635  -2.9596  -2.5994
    -2.5944  -2.5892  -2.4334  -2.4290  -2.4261  -2.4259  -2.4229  -2.4185
    -0.8935  -0.8879  -0.8845  -0.8837  -0.8805  -0.8755  -0.7918  -0.7863
    -0.7810  -0.6735  -0.6681  -0.6621  -0.5896  -0.5821  -0.5743   0.1202
     0.1951   0.1996   0.2041   0.2050   0.2098   0.2141   1.0741   1.0791
     1.0841   1.4079   1.4120   1.4161   2.0188   2.0201   2.0208   2.0240
     2.0248   2.0257   2.0785   2.0815   2.0853   2.6303   2.6332   2.6362
     2.7304   2.7322   2.7356   2.7374   2.7405   2.7419   2.7871   2.7906
     2.7935   3.0940   3.0993   3.1002   3.1012   3.1021   3.1072   3.3628
     3.3652   3.3664   3.3753   3.3791   3.3834   3.7235   3.7278   3.7319
     3.7451   3.7497   3.7548   3.8288   3.8325   3.8361   4.0987   4.1038
     4.1068   4.1075   4.1106   4.1159   4.1424   4.1466   4.1509   4.4069
     4.4617   4.4641   4.4661   4.7031   4.7072   4.7115   4.7668   4.7720
     4.7781   4.9249   4.9337   5.2311   5.2366   5.2422   5.7123   5.7221
     6.9270   6.9301   6.9337   7.3664   7.3705   7.3747   7.5967   7.8526
     7.8562   7.8600   7.9815   7.9861   7.9907   8.1437   8.1449   8.1459
     8.1630   8.1650   8.1671   8.3891   8.3933   8.3955   8.3982   8.4005
     8.4041   8.4442

          k =-0.2500-0.2500 0.2500 ( 52563 PWs)   bands (ev):

    -5.6275  -5.1017  -5.0993  -5.0966  -4.6027  -4.6004  -4.5976  -4.1681
    -4.0702  -4.0677  -4.0652  -3.6567  -3.6535  -3.6531  -3.6517  -3.6463
    -3.6440  -3.4622  -3.4593  -3.4543  -2.9688  -2.9655  -2.9617  -2.5974
    -2.5941  -2.5904  -2.4313  -2.4291  -2.4280  -2.4264  -2.4213  -2.4177
    -0.8917  -0.8888  -0.8864  -0.8843  -0.8810  -0.8764  -0.7909  -0.7866
    -0.7841  -0.6736  -0.6685  -0.6669  -0.5826  -0.5815  -0.5690   0.1239
     0.1953   0.1987   0.2023   0.2044   0.2086   0.2093   1.0767   1.0803
     1.0875   1.4089   1.4121   1.4148   2.0185   2.0201   2.0213   2.0230
     2.0245   2.0260   2.0777   2.0798   2.0846   2.6332   2.6358   2.6367
     2.7299   2.7308   2.7339   2.7368   2.7383   2.7403   2.7849   2.7884
     2.7910   3.0966   3.0986   3.0994   3.1008   3.1037   3.1059   3.3601
     3.3644   3.3657   3.3757   3.3783   3.3806   3.7269   3.7293   3.7324
     3.7497   3.7545   3.7556   3.8279   3.8320   3.8338   4.1053   4.1064
     4.1075   4.1091   4.1140   4.1171   4.1414   4.1463   4.1486   4.4110
     4.4577   4.4629   4.4643   4.7015   4.7066   4.7079   4.7725   4.7745
     4.7842   4.9255   4.9307   5.2286   5.2357   5.2373   5.7120   5.7176
     6.9252   6.9283   6.9322   7.3645   7.3709   7.3738   7.5952   7.8506
     7.8549   7.8585   7.9835   7.9883   7.9907   8.1418   8.1437   8.1472
     8.1599   8.1657   8.1673   8.3923   8.3964   8.3970   8.3988   8.4025
     8.4046   8.4420

          k =-0.2500 0.2500-0.2500 ( 52563 PWs)   bands (ev):

    -5.6274  -5.1003  -5.0994  -5.0983  -4.6011  -4.6002  -4.5993  -4.1671
    -4.0688  -4.0674  -4.0657  -3.6597  -3.6538  -3.6518  -3.6508  -3.6489
    -3.6432  -3.4639  -3.4594  -3.4547  -2.9667  -2.9634  -2.9603  -2.5995
    -2.5942  -2.5892  -2.4345  -2.4290  -2.4262  -2.4258  -2.4231  -2.4173
    -0.8943  -0.8876  -0.8843  -0.8838  -0.8807  -0.8745  -0.7920  -0.7864
    -0.7810  -0.6735  -0.6682  -0.6621  -0.5890  -0.5821  -0.5747   0.1202
     0.1947   0.2002   0.2033   0.2059   0.2088   0.2146   1.0730   1.0791
     1.0853   1.4075   1.4121   1.4164   2.0166   2.0210   2.0221   2.0230
     2.0240   2.0275   2.0786   2.0815   2.0855   2.6304   2.6332   2.6362
     2.7298   2.7321   2.7359   2.7371   2.7403   2.7424   2.7861   2.7903
     2.7950   3.0955   3.0980   3.0999   3.1014   3.1034   3.1056   3.3630
     3.3647   3.3666   3.3754   3.3792   3.3833   3.7259   3.7279   3.7296
     3.7449   3.7499   3.7547   3.8292   3.8325   3.8356   4.0994   4.1056
     4.1061   4.1083   4.1085   4.1149   4.1430   4.1469   4.1507   4.4069
     4.4617   4.4640   4.4661   4.7035   4.7071   4.7111   4.7663   4.7720
     4.7787   4.9250   4.9337   5.2315   5.2366   5.2419   5.7123   5.7221
     6.9270   6.9301   6.9337   7.3649   7.3706   7.3761   7.5967   7.8513
     7.8564   7.8613   7.9813   7.9861   7.9905   8.1407   8.1453   8.1484
     8.1630   8.1650   8.1672   8.3897   8.3936   8.3958   8.3980   8.4002
     8.4031   8.4444

          k = 0.2500-0.2500-0.2500 ( 52563 PWs)   bands (ev):

    -5.6274  -5.1021  -5.0994  -5.0968  -4.6029  -4.6000  -4.5976  -4.1660
    -4.0696  -4.0670  -4.0644  -3.6588  -3.6568  -3.6508  -3.6495  -3.6492
    -3.6461  -3.4640  -3.4594  -3.4565  -2.9651  -2.9613  -2.9583  -2.5987
    -2.5943  -2.5911  -2.4339  -2.4306  -2.4257  -2.4240  -2.4229  -2.4205
    -0.8930  -0.8875  -0.8836  -0.8817  -0.8798  -0.8772  -0.7888  -0.7856
    -0.7820  -0.6688  -0.6680  -0.6617  -0.5945  -0.5828  -0.5817   0.1164
     0.2000   0.2004   0.2047   0.2069   0.2105   0.2142   1.0706   1.0779
     1.0814   1.4091   1.4119   1.4150   2.0183   2.0201   2.0220   2.0236
     2.0249   2.0261   2.0801   2.0833   2.0855   2.6298   2.6308   2.6334
     2.7326   2.7345   2.7357   2.7387   2.7419   2.7424   2.7898   2.7923
     2.7958   3.0953   3.0975   3.1005   3.1018   3.1029   3.1048   3.3640
     3.3654   3.3681   3.3779   3.3803   3.3839   3.7219   3.7262   3.7289
     3.7441   3.7463   3.7500   3.8312   3.8327   3.8369   4.0970   4.1002
     4.1056   4.1070   4.1081   4.1088   4.1455   4.1468   4.1517   4.4028
     4.4638   4.4649   4.4702   4.7066   4.7079   4.7134   4.7611   4.7696
     4.7714   4.9281   4.9330   5.2360   5.2374   5.2449   5.7167   5.7225
     6.9285   6.9324   6.9350   7.3673   7.3702   7.3764   7.5982   7.8543
     7.8578   7.8618   7.9816   7.9841   7.9883   8.1425   8.1454   8.1478
     8.1625   8.1646   8.1703   8.3888   8.3912   8.3949   8.3968   8.3973
     8.4008   8.4467

     the Fermi energy is     6.3204 ev

!    total energy              =    -730.88002102 Ry
     Harris-Foulkes estimate   =    -730.88002103 Ry
     estimated scf accuracy    <          9.7E-09 Ry

     The total energy is the sum of the following terms:

     one-electron contribution =     160.47303341 Ry
     hartree contribution      =      35.78707855 Ry
     xc contribution           =    -393.13386604 Ry
     ewald contribution        =    -534.00626694 Ry
     smearing contrib. (-TS)   =      -0.00000000 Ry

     convergence has been achieved in  11 iterations

     Forces acting on atoms (cartesian axes, Ry/au):

     atom    1 type  1   force =    -0.01613134    0.00000871   -0.00004409
     atom    2 type  1   force =     0.00010007   -0.00000896   -0.00004419
     atom    3 type  1   force =     0.00028122    0.00011104   -0.00023129
     atom    4 type  1   force =    -0.00023080   -0.00011046   -0.00023176
     atom    5 type  1   force =     0.00013159    0.00000901   -0.00004367
     atom    6 type  1   force =    -0.00008116   -0.00000889   -0.00004329
     atom    7 type  1   force =    -0.00070564    0.00011492   -0.00023756
     atom    8 type  1   force =     0.00025472   -0.00011484   -0.00023713
     atom    9 type  1   force =    -0.00041509   -0.00000039    0.00064428
     atom   10 type  1   force =     0.00011120    0.00011936    0.00053437
     atom   11 type  1   force =    -0.00063642   -0.00000194    0.00041539
     atom   12 type  1   force =    -0.00011282    0.00012336    0.00052143
     atom   13 type  1   force =    -0.00051694   -0.00011817    0.00010854
     atom   14 type  1   force =     0.00001105    0.00000060    0.00000673
     atom   15 type  1   force =    -0.00053867   -0.00012444   -0.00011669
     atom   16 type  1   force =    -0.00000745   -0.00000069   -0.00001031
     atom   17 type  1   force =     0.00023115   -0.00011014    0.00070071
     atom   18 type  1   force =     0.00023740   -0.00011474   -0.00028652
     atom   19 type  1   force =     0.00004357   -0.00000900   -0.00013252
     atom   20 type  1   force =     0.00004460   -0.00000885    0.01613268
     atom   21 type  1   force =     0.00023135    0.00011043   -0.00024890
     atom   22 type  1   force =     0.00023750    0.00011487    0.00023583
     atom   23 type  1   force =     0.00004383    0.00000913    0.00008166
     atom   24 type  1   force =     0.00004372    0.00000863   -0.00009986
     atom   25 type  1   force =     0.00022239    0.00030165   -0.00015486
     atom   26 type  1   force =     0.00012630   -0.00045419   -0.00034642
     atom   27 type  1   force =     0.00023979   -0.00030173    0.00006595
     atom   28 type  1   force =     0.00034790    0.00045447   -0.00011701
     atom   29 type  1   force =     0.00003522   -0.00015085   -0.00005267
     atom   30 type  1   force =    -0.00007123    0.00030635   -0.00024572
     atom   31 type  1   force =     0.00005256    0.00015055   -0.00003441
     atom   32 type  1   force =     0.00015835   -0.00030578   -0.00022866
     atom   33 type  1   force =    -0.00005794    0.00008071    0.00009104
     atom   34 type  1   force =    -0.00247908    0.00276701   -0.00393040
     atom   35 type  1   force =    -0.00000104    0.00005382   -0.00023413
     atom   36 type  1   force =    -0.00010743    0.00008579    0.00009707
     atom   37 type  1   force =     0.00000228    0.00005155    0.00000006
     atom   38 type  1   force =    -0.00009598    0.00007523    0.00005762
     atom   39 type  1   force =    -0.00004160    0.00006842    0.00005678
     atom   40 type  1   force =     0.00393181    0.00276062    0.00271034
     atom   41 type  1   force =     0.00001771   -0.00000870   -0.00029306
     atom   42 type  1   force =     0.00400924   -0.00270048   -0.00267951
     atom   43 type  1   force =     0.00006268    0.00002532    0.00003000
     atom   44 type  1   force =     0.00245340    0.00247308   -0.00388707
     atom   45 type  1   force =     0.00005812    0.00000471   -0.00000382
     atom   46 type  1   force =    -0.00002971   -0.00002190   -0.00006586
     atom   47 type  1   force =     0.00000599   -0.00000317   -0.00005960
     atom   48 type  1   force =     0.00029564    0.00000812   -0.00001829
     atom   49 type  1   force =    -0.00009291   -0.00008570    0.00010691
     atom   50 type  1   force =    -0.00248241   -0.00253730   -0.00381033
     atom   51 type  1   force =     0.00381109   -0.00253853    0.00225400
     atom   52 type  1   force =    -0.00006002   -0.00007343    0.00009334
     atom   53 type  1   force =     0.00022911   -0.00005608   -0.00000032
     atom   54 type  1   force =    -0.00005681   -0.00006721    0.00004099
     atom   55 type  1   force =    -0.00008806   -0.00008214    0.00005685
     atom   56 type  1   force =    -0.00000073   -0.00005576   -0.00000209
     atom   57 type  1   force =    -0.00002879    0.00002262   -0.00029457
     atom   58 type  1   force =     0.00007685   -0.00000817    0.00003322
     atom   59 type  1   force =     0.00029340   -0.00002176    0.00003152
     atom   60 type  1   force =     0.00271681   -0.00270633   -0.00398908
     atom   61 type  1   force =     0.00387101    0.00248002   -0.00249121
     atom   62 type  1   force =     0.00001690    0.00001292   -0.00006351
     atom   63 type  1   force =    -0.00003288    0.00000907   -0.00007701
     atom   64 type  1   force =     0.00006539   -0.00001132   -0.00001988

     Total force =     0.027487     Total SCF correction =     0.000126

     Writing output data file pwscf.save/
 
     init_run     :     41.78s CPU     87.96s WALL (       1 calls)
     electrons    :   1030.21s CPU   1595.13s WALL (       1 calls)
     forces       :     19.34s CPU     30.92s WALL (       1 calls)

     Called by init_run:
     wfcinit      :     39.97s CPU     83.46s WALL (       1 calls)
     potinit      :      0.35s CPU      0.81s WALL (       1 calls)
     hinit0       :      0.44s CPU      1.00s WALL (       1 calls)

     Called by electrons:
     c_bands      :    878.23s CPU   1359.87s WALL (      12 calls)
     sum_band     :    138.99s CPU    212.50s WALL (      12 calls)
     v_of_rho     :      3.10s CPU      4.87s WALL (      12 calls)
     newd         :     10.02s CPU     19.55s WALL (      12 calls)
     mix_rho      :      0.92s CPU      1.24s WALL (      12 calls)

     Called by c_bands:
     init_us_2    :     11.31s CPU     17.47s WALL (     104 calls)
     cegterg      :    792.32s CPU   1228.81s WALL (      48 calls)

     Called by sum_band:
     sum_band:bec :      0.06s CPU      0.06s WALL (      48 calls)
     addusdens    :     10.12s CPU     18.85s WALL (      12 calls)

     Called by *egterg:
     h_psi        :    582.18s CPU    915.66s WALL (     208 calls)
     s_psi        :    114.41s CPU    176.99s WALL (     208 calls)
     g_psi        :      1.00s CPU      1.57s WALL (     156 calls)
     cdiaghg      :     10.56s CPU     16.88s WALL (     200 calls)

     Called by h_psi:
     h_psi:pot    :    580.26s CPU    909.52s WALL (     208 calls)
     h_psi:calbec :    121.94s CPU    185.92s WALL (     208 calls)
     vloc_psi     :    343.16s CPU    545.71s WALL (     208 calls)
     add_vuspsi   :    115.16s CPU    177.88s WALL (     208 calls)

     General routines
     calbec       :    179.60s CPU    272.19s WALL (     272 calls)
     fft          :      2.77s CPU      4.49s WALL (     145 calls)
     ffts         :      0.16s CPU      0.26s WALL (      12 calls)
     fftw         :    348.24s CPU    569.80s WALL (   46568 calls)
 
     Parallel routines
     fft_scatt_xy :     64.93s CPU     82.04s WALL (   46725 calls)
     fft_scatt_yz :    113.86s CPU    265.33s WALL (   46725 calls)
 
     PWSCF        : 18m12.09s CPU    28m35.81s WALL

 
   This run was terminated on:  14: 3:53  14Feb2020            

=------------------------------------------------------------------------------=
   JOB DONE.
=------------------------------------------------------------------------------=
