
     Program PWSCF v.6.3MaX starts on 14Feb2020 at 23:12:54 

     This program is part of the open-source Quantum ESPRESSO suite
     for quantum simulation of materials; please cite
         "P. Giannozzi et al., J. Phys.:Condens. Matter 21 395502 (2009);
         "P. Giannozzi et al., J. Phys.:Condens. Matter 29 465901 (2017);
          URL http://www.quantum-espresso.org", 
     in publications or presentations arising from this work. More details at
     http://www.quantum-espresso.org/quote

     Parallel version (MPI), running on     2 processors

     MPI processes distributed on     1 nodes
     R & G space division:  proc/nbgrp/npool/nimage =       2
     Waiting for input...
     Reading input from standard input

     Current dimensions of program PWSCF are:
     Max number of different atomic species (ntypx) = 10
     Max number of k-points (npk) =  40000
     Max angular momentum in pseudopotentials (lmaxx) =  3

     Subspace diagonalization in iterative solution of the eigenvalue problem:
     a serial algorithm will be used

 
     Parallelization info
     --------------------
     sticks:   dense  smooth     PW     G-vecs:    dense   smooth      PW
     Min        3392    3392    878               210674   210674   27756
     Max        3393    3393    879               210675   210675   27759
     Sum        6785    6785   1757               421349   421349   55515
 


     bravais-lattice index     =            0
     lattice parameter (alat)  =      20.6591  a.u.
     unit-cell volume          =    8817.2783 (a.u.)^3
     number of atoms/cell      =           64
     number of atomic types    =            1
     number of electrons       =       256.00
     number of Kohn-Sham states=          154
     kinetic-energy cutoff     =      50.0000  Ry
     charge density cutoff     =     200.0000  Ry
     convergence threshold     =      1.0E-08
     mixing beta               =       0.7000
     number of iterations used =            8  plain     mixing
     Exchange-correlation      = PBE ( 1  4  3  4 0 0)

     celldm(1)=  20.659106  celldm(2)=   0.000000  celldm(3)=   0.000000
     celldm(4)=   0.000000  celldm(5)=   0.000000  celldm(6)=   0.000000

     crystal axes: (cart. coord. in units of alat)
               a(1) = (   1.000000   0.000000   0.000000 )  
               a(2) = (   0.000000   1.000000   0.000000 )  
               a(3) = (   0.000000   0.000000   1.000000 )  

     reciprocal axes: (cart. coord. in units 2 pi/alat)
               b(1) = (  1.000000  0.000000  0.000000 )  
               b(2) = (  0.000000  1.000000  0.000000 )  
               b(3) = (  0.000000  0.000000  1.000000 )  


     PseudoPot. # 1 for Si read from file:
     ~/kedar/softwares/SSSP_precision_pseudos/Si.pbe-n-rrkjus_psl.1.0.0.UPF
     MD5 check sum: Not computed, couldn't open file
     Pseudo is Ultrasoft + core correction, Zval =  4.0
     Generated using "atomic" code by A. Dal Corso v.5.1
     Using radial grid of 1141 points,  6 beta functions with: 
                l(1) =   0
                l(2) =   0
                l(3) =   1
                l(4) =   1
                l(5) =   2
                l(6) =   2
     Q(r) pseudized with 0 coefficients 


     atomic species   valence    mass     pseudopotential
        Si             4.00    28.08550     Si( 1.00)

     No symmetry found



   Cartesian axes

     site n.     atom                  positions (alat units)
         1           Si  tau(   1) = (   0.4404043   0.4375000   0.4375000  )
         2           Si  tau(   2) = (   0.9375000   0.4375000   0.4375000  )
         3           Si  tau(   3) = (   0.4375000   0.9375000   0.4375000  )
         4           Si  tau(   4) = (   0.9375000   0.9375000   0.4375000  )
         5           Si  tau(   5) = (   0.4375000   0.4375000   0.9375000  )
         6           Si  tau(   6) = (   0.9375000   0.4375000   0.9375000  )
         7           Si  tau(   7) = (   0.4375000   0.9375000   0.9375000  )
         8           Si  tau(   8) = (   0.9375000   0.9375000   0.9375000  )
         9           Si  tau(   9) = (   0.4375000   0.1875000   0.1875000  )
        10           Si  tau(  10) = (   0.9375000   0.1875000   0.1875000  )
        11           Si  tau(  11) = (   0.4375000   0.6875000   0.1875000  )
        12           Si  tau(  12) = (   0.9375000   0.6875000   0.1875000  )
        13           Si  tau(  13) = (   0.4375000   0.1875000   0.6875000  )
        14           Si  tau(  14) = (   0.9375000   0.1875000   0.6875000  )
        15           Si  tau(  15) = (   0.4375000   0.6875000   0.6875000  )
        16           Si  tau(  16) = (   0.9375000   0.6875000   0.6875000  )
        17           Si  tau(  17) = (   0.1875000   0.4375000   0.1875000  )
        18           Si  tau(  18) = (   0.6875000   0.4375000   0.1875000  )
        19           Si  tau(  19) = (   0.1875000   0.9375000   0.1875000  )
        20           Si  tau(  20) = (   0.6875000   0.9375000   0.1875000  )
        21           Si  tau(  21) = (   0.1875000   0.4375000   0.6875000  )
        22           Si  tau(  22) = (   0.6875000   0.4375000   0.6875000  )
        23           Si  tau(  23) = (   0.1875000   0.9375000   0.6875000  )
        24           Si  tau(  24) = (   0.6875000   0.9375000   0.6875000  )
        25           Si  tau(  25) = (   0.1875000   0.1875000   0.4375000  )
        26           Si  tau(  26) = (   0.6875000   0.1875000   0.4375000  )
        27           Si  tau(  27) = (   0.1875000   0.6875000   0.4375000  )
        28           Si  tau(  28) = (   0.6875000   0.6875000   0.4375000  )
        29           Si  tau(  29) = (   0.1875000   0.1875000   0.9375000  )
        30           Si  tau(  30) = (   0.6875000   0.1875000   0.9375000  )
        31           Si  tau(  31) = (   0.1875000   0.6875000   0.9375000  )
        32           Si  tau(  32) = (   0.6875000   0.6875000   0.9375000  )
        33           Si  tau(  33) = (   0.0625000   0.0625000   0.0625000  )
        34           Si  tau(  34) = (   0.5625000   0.0625000   0.0625000  )
        35           Si  tau(  35) = (   0.0625000   0.5625000   0.0625000  )
        36           Si  tau(  36) = (   0.5625000   0.5625000   0.0625000  )
        37           Si  tau(  37) = (   0.0625000   0.0625000   0.5625000  )
        38           Si  tau(  38) = (   0.5625000   0.0625000   0.5625000  )
        39           Si  tau(  39) = (   0.0625000   0.5625000   0.5625000  )
        40           Si  tau(  40) = (   0.5625000   0.5625000   0.5625000  )
        41           Si  tau(  41) = (   0.0625000   0.3125000   0.3125000  )
        42           Si  tau(  42) = (   0.5625000   0.3125000   0.3125000  )
        43           Si  tau(  43) = (   0.0625000   0.8125000   0.3125000  )
        44           Si  tau(  44) = (   0.5625000   0.8125000   0.3125000  )
        45           Si  tau(  45) = (   0.0625000   0.3125000   0.8125000  )
        46           Si  tau(  46) = (   0.5625000   0.3125000   0.8125000  )
        47           Si  tau(  47) = (   0.0625000   0.8125000   0.8125000  )
        48           Si  tau(  48) = (   0.5625000   0.8125000   0.8125000  )
        49           Si  tau(  49) = (   0.3125000   0.0625000   0.3125000  )
        50           Si  tau(  50) = (   0.8125000   0.0625000   0.3125000  )
        51           Si  tau(  51) = (   0.3125000   0.5625000   0.3125000  )
        52           Si  tau(  52) = (   0.8125000   0.5625000   0.3125000  )
        53           Si  tau(  53) = (   0.3125000   0.0625000   0.8125000  )
        54           Si  tau(  54) = (   0.8125000   0.0654043   0.8125000  )
        55           Si  tau(  55) = (   0.3125000   0.5625000   0.8125000  )
        56           Si  tau(  56) = (   0.8125000   0.5625000   0.8125000  )
        57           Si  tau(  57) = (   0.3125000   0.3125000   0.0625000  )
        58           Si  tau(  58) = (   0.8125000   0.3125000   0.0625000  )
        59           Si  tau(  59) = (   0.3125000   0.8125000   0.0625000  )
        60           Si  tau(  60) = (   0.8125000   0.8125000   0.0625000  )
        61           Si  tau(  61) = (   0.3125000   0.3125000   0.5625000  )
        62           Si  tau(  62) = (   0.8125000   0.3125000   0.5625000  )
        63           Si  tau(  63) = (   0.3125000   0.8125000   0.5625000  )
        64           Si  tau(  64) = (   0.8125000   0.8125000   0.5625000  )

     number of k points=     4  gaussian smearing, width (Ry)=  0.0100
                       cart. coord. in units 2pi/alat
        k(    1) = (   0.2500000   0.2500000   0.2500000), wk =   0.5000000
        k(    2) = (  -0.2500000  -0.2500000   0.2500000), wk =   0.5000000
        k(    3) = (  -0.2500000   0.2500000  -0.2500000), wk =   0.5000000
        k(    4) = (   0.2500000  -0.2500000  -0.2500000), wk =   0.5000000

     Dense  grid:   421349 G-vectors     FFT dimensions: (  96,  96,  96)

     Estimated max dynamical RAM per process >       2.05 GB

     Estimated total dynamical RAM >       4.11 GB

     Check: negative/imaginary core charge=   -0.000001    0.000000

     Initial potential from superposition of free atoms

     starting charge  255.96421, renormalised to  256.00000
     Starting wfcs are  256 randomized atomic wfcs

     total cpu time spent up to now is       74.7 secs

     Self-consistent Calculation

     iteration #  1     ecut=    50.00 Ry     beta= 0.70
     Davidson diagonalization with overlap
     ethr =  1.00E-02,  avg # of iterations =  3.0

     Threshold (ethr) on eigenvalues was too large:
     Diagonalizing with lowered threshold

     Davidson diagonalization with overlap
     ethr =  6.78E-04,  avg # of iterations =  2.0

     total cpu time spent up to now is      367.6 secs

     total energy              =    -730.80279800 Ry
     Harris-Foulkes estimate   =    -731.20890222 Ry
     estimated scf accuracy    <       1.72048038 Ry

     iteration #  2     ecut=    50.00 Ry     beta= 0.70
     Davidson diagonalization with overlap
     ethr =  6.72E-04,  avg # of iterations =  1.0

     total cpu time spent up to now is      487.2 secs

     total energy              =    -730.86487159 Ry
     Harris-Foulkes estimate   =    -730.87085156 Ry
     estimated scf accuracy    <       0.08014445 Ry

     iteration #  3     ecut=    50.00 Ry     beta= 0.70
     Davidson diagonalization with overlap
     ethr =  3.13E-05,  avg # of iterations = 11.5

     total cpu time spent up to now is      767.5 secs

     total energy              =    -730.87930439 Ry
     Harris-Foulkes estimate   =    -730.88060299 Ry
     estimated scf accuracy    <       0.00280375 Ry

     iteration #  4     ecut=    50.00 Ry     beta= 0.70
     Davidson diagonalization with overlap
     ethr =  1.10E-06,  avg # of iterations =  4.8

     total cpu time spent up to now is      974.1 secs

     total energy              =    -730.87955268 Ry
     Harris-Foulkes estimate   =    -730.88071264 Ry
     estimated scf accuracy    <       0.00336109 Ry

     iteration #  5     ecut=    50.00 Ry     beta= 0.70
     Davidson diagonalization with overlap
     ethr =  1.10E-06,  avg # of iterations =  2.0

     total cpu time spent up to now is     1189.8 secs

     total energy              =    -730.87998710 Ry
     Harris-Foulkes estimate   =    -730.88009832 Ry
     estimated scf accuracy    <       0.00032895 Ry

     iteration #  6     ecut=    50.00 Ry     beta= 0.70
     Davidson diagonalization with overlap
     ethr =  1.28E-07,  avg # of iterations =  3.0

     total cpu time spent up to now is     1418.9 secs

     total energy              =    -730.88001084 Ry
     Harris-Foulkes estimate   =    -730.88004429 Ry
     estimated scf accuracy    <       0.00008370 Ry

     iteration #  7     ecut=    50.00 Ry     beta= 0.70
     Davidson diagonalization with overlap
     ethr =  3.27E-08,  avg # of iterations =  2.0

     total cpu time spent up to now is     1620.5 secs

     total energy              =    -730.88002312 Ry
     Harris-Foulkes estimate   =    -730.88002355 Ry
     estimated scf accuracy    <       0.00000280 Ry

     iteration #  8     ecut=    50.00 Ry     beta= 0.70
     Davidson diagonalization with overlap
     ethr =  1.09E-09,  avg # of iterations =  3.0

     total cpu time spent up to now is     1848.3 secs

     total energy              =    -730.88002385 Ry
     Harris-Foulkes estimate   =    -730.88002426 Ry
     estimated scf accuracy    <       0.00000199 Ry

     iteration #  9     ecut=    50.00 Ry     beta= 0.70
     Davidson diagonalization with overlap
     ethr =  7.79E-10,  avg # of iterations =  2.0

     total cpu time spent up to now is     2014.1 secs

     total energy              =    -730.88002375 Ry
     Harris-Foulkes estimate   =    -730.88002404 Ry
     estimated scf accuracy    <       0.00000104 Ry

     iteration # 10     ecut=    50.00 Ry     beta= 0.70
     Davidson diagonalization with overlap
     ethr =  4.06E-10,  avg # of iterations =  1.0

     total cpu time spent up to now is     2172.2 secs

     total energy              =    -730.88002373 Ry
     Harris-Foulkes estimate   =    -730.88002381 Ry
     estimated scf accuracy    <       0.00000022 Ry

     iteration # 11     ecut=    50.00 Ry     beta= 0.70
     Davidson diagonalization with overlap
     ethr =  8.51E-11,  avg # of iterations =  3.0

     total cpu time spent up to now is     2356.4 secs

     total energy              =    -730.88002375 Ry
     Harris-Foulkes estimate   =    -730.88002376 Ry
     estimated scf accuracy    <       0.00000002 Ry

     iteration # 12     ecut=    50.00 Ry     beta= 0.70
     Davidson diagonalization with overlap
     ethr =  5.87E-12,  avg # of iterations =  3.0

     total cpu time spent up to now is     2540.5 secs

     End of self-consistent calculation

          k = 0.2500 0.2500 0.2500 ( 52563 PWs)   bands (ev):

    -5.6275  -5.1019  -5.1000  -5.0961  -4.6027  -4.6009  -4.5971  -4.1670
    -4.0700  -4.0682  -4.0638  -3.6601  -3.6538  -3.6515  -3.6513  -3.6498
    -3.6418  -3.4639  -3.4594  -3.4548  -2.9663  -2.9651  -2.9590  -2.5995
    -2.5943  -2.5892  -2.4346  -2.4291  -2.4262  -2.4257  -2.4241  -2.4164
    -0.8940  -0.8879  -0.8842  -0.8839  -0.8817  -0.8735  -0.7920  -0.7864
    -0.7810  -0.6735  -0.6681  -0.6622  -0.5867  -0.5831  -0.5764   0.1202
     0.1952   0.2001   0.2038   0.2045   0.2078   0.2161   1.0744   1.0784
     1.0845   1.4078   1.4117   1.4163   2.0177   2.0204   2.0212   2.0226
     2.0253   2.0274   2.0790   2.0811   2.0848   2.6302   2.6334   2.6362
     2.7315   2.7324   2.7347   2.7369   2.7401   2.7425   2.7862   2.7900
     2.7945   3.0954   3.0981   3.0999   3.1002   3.1024   3.1078   3.3620
     3.3643   3.3677   3.3755   3.3794   3.3831   3.7249   3.7281   3.7297
     3.7458   3.7496   3.7545   3.8293   3.8318   3.8363   4.1003   4.1050
     4.1060   4.1072   4.1085   4.1157   4.1431   4.1458   4.1513   4.4067
     4.4605   4.4636   4.4676   4.7036   4.7067   4.7114   4.7682   4.7715
     4.7772   4.9249   4.9337   5.2317   5.2359   5.2422   5.7122   5.7221
     6.9270   6.9296   6.9341   7.3650   7.3704   7.3763   7.5967   7.8513
     7.8563   7.8613   7.9814   7.9861   7.9906   8.1407   8.1451   8.1482
     8.1621   8.1637   8.1695   8.3902   8.3942   8.3963   8.3965   8.3992
     8.4046   8.4440

          k =-0.2500-0.2500 0.2500 ( 52563 PWs)   bands (ev):

    -5.6275  -5.1019  -5.1000  -5.0961  -4.6027  -4.6009  -4.5971  -4.1670
    -4.0700  -4.0682  -4.0638  -3.6601  -3.6538  -3.6515  -3.6513  -3.6498
    -3.6418  -3.4639  -3.4594  -3.4548  -2.9663  -2.9651  -2.9590  -2.5995
    -2.5943  -2.5892  -2.4346  -2.4291  -2.4263  -2.4257  -2.4241  -2.4164
    -0.8940  -0.8879  -0.8842  -0.8839  -0.8817  -0.8735  -0.7920  -0.7864
    -0.7810  -0.6735  -0.6681  -0.6622  -0.5867  -0.5831  -0.5764   0.1202
     0.1952   0.2001   0.2038   0.2045   0.2078   0.2161   1.0743   1.0784
     1.0845   1.4078   1.4117   1.4163   2.0177   2.0204   2.0212   2.0226
     2.0253   2.0274   2.0790   2.0811   2.0848   2.6302   2.6334   2.6362
     2.7315   2.7324   2.7347   2.7369   2.7401   2.7425   2.7862   2.7900
     2.7945   3.0954   3.0981   3.0999   3.1002   3.1024   3.1077   3.3620
     3.3643   3.3677   3.3755   3.3794   3.3831   3.7249   3.7281   3.7297
     3.7458   3.7496   3.7545   3.8293   3.8318   3.8363   4.1003   4.1050
     4.1060   4.1072   4.1085   4.1157   4.1431   4.1458   4.1513   4.4067
     4.4605   4.4636   4.4676   4.7036   4.7067   4.7114   4.7682   4.7715
     4.7772   4.9249   4.9337   5.2317   5.2359   5.2422   5.7122   5.7221
     6.9270   6.9296   6.9341   7.3650   7.3704   7.3763   7.5967   7.8513
     7.8563   7.8613   7.9814   7.9861   7.9906   8.1407   8.1451   8.1482
     8.1621   8.1637   8.1695   8.3902   8.3942   8.3963   8.3965   8.3992
     8.4046   8.4440

          k =-0.2500 0.2500-0.2500 ( 52563 PWs)   bands (ev):

    -5.6275  -5.1027  -5.1002  -5.0947  -4.6037  -4.6012  -4.5960  -4.1682
    -4.0714  -4.0684  -4.0632  -3.6575  -3.6543  -3.6525  -3.6522  -3.6504
    -3.6385  -3.4622  -3.4598  -3.4540  -2.9704  -2.9647  -2.9609  -2.5977
    -2.5961  -2.5882  -2.4311  -2.4291  -2.4277  -2.4272  -2.4248  -2.4145
    -0.8910  -0.8868  -0.8865  -0.8849  -0.8822  -0.8768  -0.7916  -0.7889
    -0.7814  -0.6744  -0.6686  -0.6663  -0.5838  -0.5824  -0.5670   0.1239
     0.1947   0.2002   0.2018   0.2037   0.2060   0.2120   1.0764   1.0789
     1.0892   1.4087   1.4114   1.4155   2.0177   2.0198   2.0223   2.0228
     2.0245   2.0264   2.0773   2.0806   2.0838   2.6331   2.6339   2.6386
     2.7290   2.7302   2.7350   2.7366   2.7391   2.7401   2.7857   2.7866
     2.7919   3.0955   3.0988   3.1000   3.1011   3.1012   3.1079   3.3611
     3.3644   3.3651   3.3755   3.3779   3.3808   3.7271   3.7283   3.7340
     3.7494   3.7505   3.7590   3.8287   3.8320   3.8331   4.1049   4.1060
     4.1063   4.1098   4.1099   4.1221   4.1426   4.1459   4.1479   4.4108
     4.4587   4.4629   4.4634   4.7022   4.7068   4.7070   4.7722   4.7728
     4.7857   4.9254   4.9306   5.2297   5.2358   5.2360   5.7120   5.7176
     6.9264   6.9275   6.9318   7.3658   7.3704   7.3731   7.5952   7.8509
     7.8553   7.8577   7.9828   7.9888   7.9909   8.1398   8.1462   8.1464
     8.1618   8.1651   8.1661   8.3922   8.3960   8.3967   8.3969   8.4038
     8.4064   8.4416

          k = 0.2500-0.2500-0.2500 ( 52563 PWs)   bands (ev):

    -5.6274  -5.1026  -5.0998  -5.0959  -4.6031  -4.6007  -4.5969  -4.1661
    -4.0705  -4.0675  -4.0629  -3.6597  -3.6557  -3.6514  -3.6508  -3.6482
    -3.6456  -3.4646  -3.4588  -3.4566  -2.9655  -2.9627  -2.9565  -2.6006
    -2.5928  -2.5907  -2.4348  -2.4283  -2.4262  -2.4258  -2.4220  -2.4208
    -0.8939  -0.8857  -0.8840  -0.8836  -0.8788  -0.8761  -0.7918  -0.7836
    -0.7814  -0.6699  -0.6674  -0.6614  -0.5942  -0.5831  -0.5818   0.1165
     0.1970   0.2034   0.2042   0.2047   0.2119   0.2153   1.0698   1.0786
     1.0815   1.4084   1.4125   1.4151   2.0167   2.0197   2.0225   2.0231
     2.0247   2.0282   2.0800   2.0833   2.0855   2.6284   2.6320   2.6335
     2.7325   2.7346   2.7359   2.7376   2.7402   2.7447   2.7881   2.7936
     2.7962   3.0953   3.0976   3.0999   3.1006   3.1021   3.1070   3.3637
     3.3653   3.3686   3.3780   3.3807   3.3833   3.7234   3.7249   3.7287
     3.7424   3.7479   3.7498   3.8316   3.8325   3.8367   4.0965   4.1001
     4.1060   4.1070   4.1080   4.1087   4.1457   4.1467   4.1516   4.4028
     4.4637   4.4649   4.4700   4.7069   4.7078   4.7132   4.7607   4.7699
     4.7714   4.9279   4.9331   5.2362   5.2373   5.2446   5.7167   5.7225
     6.9285   6.9323   6.9351   7.3670   7.3694   7.3775   7.5982   7.8540
     7.8568   7.8632   7.9812   7.9833   7.9892   8.1425   8.1430   8.1494
     8.1624   8.1645   8.1710   8.3891   8.3920   8.3935   8.3970   8.3979
     8.4005   8.4463

     the Fermi energy is     6.3201 ev

!    total energy              =    -730.88002375 Ry
     Harris-Foulkes estimate   =    -730.88002376 Ry
     estimated scf accuracy    <          4.5E-09 Ry

     The total energy is the sum of the following terms:

     one-electron contribution =     160.47280216 Ry
     hartree contribution      =      35.78737769 Ry
     xc contribution           =    -393.13399006 Ry
     ewald contribution        =    -534.00621353 Ry
     smearing contrib. (-TS)   =      -0.00000000 Ry

     convergence has been achieved in  12 iterations

     Forces acting on atoms (cartesian axes, Ry/au):

     atom    1 type  1   force =    -0.01608460   -0.00001894   -0.00003230
     atom    2 type  1   force =    -0.00000434    0.00002876   -0.00002776
     atom    3 type  1   force =     0.00002860    0.00025423   -0.00002784
     atom    4 type  1   force =    -0.00005829   -0.00005742   -0.00003534
     atom    5 type  1   force =     0.00002820    0.00002762   -0.00002867
     atom    6 type  1   force =    -0.00004375   -0.00001028   -0.00003516
     atom    7 type  1   force =    -0.00051224   -0.00005614   -0.00004959
     atom    8 type  1   force =    -0.00248419    0.00384039   -0.00251215
     atom    9 type  1   force =    -0.00050130    0.00037279    0.00008522
     atom   10 type  1   force =     0.00005027   -0.00004793   -0.00002977
     atom   11 type  1   force =    -0.00049447    0.00008977   -0.00014012
     atom   12 type  1   force =     0.00002862    0.00003471   -0.00003461
     atom   13 type  1   force =    -0.00048971   -0.00016884    0.00006220
     atom   14 type  1   force =     0.00274031    0.00394771   -0.00272539
     atom   15 type  1   force =    -0.00050415   -0.00008769   -0.00014254
     atom   16 type  1   force =     0.00003857   -0.00001853   -0.00004600
     atom   17 type  1   force =     0.00026100   -0.00013040    0.00025423
     atom   18 type  1   force =     0.00026672   -0.00008507   -0.00020378
     atom   19 type  1   force =     0.00007277    0.00024474   -0.00004931
     atom   20 type  1   force =     0.00009393   -0.00006631    0.00011267
     atom   21 type  1   force =     0.00025774    0.00013771   -0.00019456
     atom   22 type  1   force =     0.00027439    0.00010523    0.00026713
     atom   23 type  1   force =     0.00007915   -0.00004593    0.00012766
     atom   24 type  1   force =     0.00255507    0.00384769    0.00243334
     atom   25 type  1   force =     0.00020267    0.00048312   -0.00008129
     atom   26 type  1   force =     0.00018855   -0.00028970   -0.00007813
     atom   27 type  1   force =     0.00020006   -0.00024437    0.00014046
     atom   28 type  1   force =     0.00020929    0.00025723    0.00013916
     atom   29 type  1   force =     0.00000538   -0.00013511    0.00003871
     atom   30 type  1   force =    -0.00269156    0.00403496    0.00272784
     atom   31 type  1   force =     0.00001842    0.00010277    0.00003710
     atom   32 type  1   force =     0.00000789   -0.00008628    0.00004742
     atom   33 type  1   force =     0.00009014   -0.00049401    0.00013935
     atom   34 type  1   force =     0.00037237   -0.00050164   -0.00008534
     atom   35 type  1   force =     0.00003549    0.00002859    0.00003468
     atom   36 type  1   force =    -0.00004848    0.00005003    0.00002970
     atom   37 type  1   force =    -0.00008764   -0.00050492    0.00014351
     atom   38 type  1   force =    -0.00016850   -0.00048958   -0.00006211
     atom   39 type  1   force =    -0.00001932    0.00003847    0.00004580
     atom   40 type  1   force =     0.00394839    0.00274033    0.00272635
     atom   41 type  1   force =    -0.00008619    0.00000800   -0.00004733
     atom   42 type  1   force =     0.00403425   -0.00269154   -0.00272832
     atom   43 type  1   force =     0.00010363    0.00001788   -0.00003640
     atom   44 type  1   force =    -0.00013514    0.00000582   -0.00003928
     atom   45 type  1   force =     0.00025696    0.00020905   -0.00013903
     atom   46 type  1   force =    -0.00028895    0.00018856    0.00007822
     atom   47 type  1   force =    -0.00024492    0.00020093   -0.00014100
     atom   48 type  1   force =     0.00048301    0.00020220    0.00008164
     atom   49 type  1   force =    -0.00005612   -0.00051272    0.00004997
     atom   50 type  1   force =     0.00002694    0.00002862    0.00002956
     atom   51 type  1   force =     0.00384020   -0.00248463    0.00251034
     atom   52 type  1   force =    -0.00000970   -0.00004312    0.00003498
     atom   53 type  1   force =     0.00025408    0.00002896    0.00002748
     atom   54 type  1   force =    -0.00001806   -0.01608469    0.00003157
     atom   55 type  1   force =    -0.00005728   -0.00005822    0.00003690
     atom   56 type  1   force =     0.00002843   -0.00000478    0.00002798
     atom   57 type  1   force =    -0.00006591    0.00009538   -0.00011248
     atom   58 type  1   force =    -0.00008522    0.00026736    0.00020256
     atom   59 type  1   force =     0.00024509    0.00007212    0.00004973
     atom   60 type  1   force =    -0.00013121    0.00025995   -0.00025471
     atom   61 type  1   force =     0.00384739    0.00255427   -0.00243363
     atom   62 type  1   force =     0.00010519    0.00027433   -0.00026663
     atom   63 type  1   force =    -0.00004635    0.00008011   -0.00012783
     atom   64 type  1   force =     0.00013840    0.00025840    0.00019493

     Total force =     0.027482     Total SCF correction =     0.000124

     Writing output data file pwscf.save/
 
     init_run     :     42.08s CPU     73.93s WALL (       1 calls)
     electrons    :   1111.73s CPU   2465.91s WALL (       1 calls)
     forces       :     20.46s CPU     44.30s WALL (       1 calls)

     Called by init_run:
     wfcinit      :     40.43s CPU     70.40s WALL (       1 calls)
     potinit      :      0.29s CPU      0.52s WALL (       1 calls)
     hinit0       :      0.36s CPU      0.74s WALL (       1 calls)

     Called by electrons:
     c_bands      :    953.17s CPU   2105.77s WALL (      13 calls)
     sum_band     :    143.98s CPU    320.84s WALL (      13 calls)
     v_of_rho     :      3.36s CPU      7.41s WALL (      13 calls)
     newd         :     11.20s CPU     31.74s WALL (      13 calls)
     mix_rho      :      1.04s CPU      2.32s WALL (      13 calls)

     Called by c_bands:
     init_us_2    :     11.49s CPU     24.96s WALL (     112 calls)
     cegterg      :    860.86s CPU   1904.61s WALL (      52 calls)

     Called by sum_band:
     sum_band:bec :      0.07s CPU      0.07s WALL (      52 calls)
     addusdens    :     11.23s CPU     31.10s WALL (      13 calls)

     Called by *egterg:
     h_psi        :    623.90s CPU   1364.86s WALL (     221 calls)
     s_psi        :    129.18s CPU    277.59s WALL (     221 calls)
     g_psi        :      1.14s CPU      2.38s WALL (     165 calls)
     cdiaghg      :     11.83s CPU     26.15s WALL (     213 calls)

     Called by h_psi:
     h_psi:pot    :    621.93s CPU   1356.00s WALL (     221 calls)
     h_psi:calbec :    132.88s CPU    284.76s WALL (     221 calls)
     vloc_psi     :    360.32s CPU    799.27s WALL (     221 calls)
     add_vuspsi   :    128.72s CPU    271.97s WALL (     221 calls)

     General routines
     calbec       :    195.27s CPU    418.53s WALL (     289 calls)
     fft          :      3.21s CPU      7.32s WALL (     156 calls)
     ffts         :      0.17s CPU      0.40s WALL (      13 calls)
     fftw         :    365.02s CPU    844.97s WALL (   51102 calls)
 
     Parallel routines
     fft_scatt_xy :     67.47s CPU    105.99s WALL (   51271 calls)
     fft_scatt_yz :    112.63s CPU    427.56s WALL (   51271 calls)
 
     PWSCF        : 19m35.16s CPU    43m 6.73s WALL

 
   This run was terminated on:  23:56: 1  14Feb2020            

=------------------------------------------------------------------------------=
   JOB DONE.
=------------------------------------------------------------------------------=
