
     Program PWSCF v.6.3MaX starts on 14Feb2020 at 15:38:25 

     This program is part of the open-source Quantum ESPRESSO suite
     for quantum simulation of materials; please cite
         "P. Giannozzi et al., J. Phys.:Condens. Matter 21 395502 (2009);
         "P. Giannozzi et al., J. Phys.:Condens. Matter 29 465901 (2017);
          URL http://www.quantum-espresso.org", 
     in publications or presentations arising from this work. More details at
     http://www.quantum-espresso.org/quote

     Parallel version (MPI), running on     2 processors

     MPI processes distributed on     1 nodes
     R & G space division:  proc/nbgrp/npool/nimage =       2
     Waiting for input...
     Reading input from standard input

     Current dimensions of program PWSCF are:
     Max number of different atomic species (ntypx) = 10
     Max number of k-points (npk) =  40000
     Max angular momentum in pseudopotentials (lmaxx) =  3

     Subspace diagonalization in iterative solution of the eigenvalue problem:
     a serial algorithm will be used

 
     Parallelization info
     --------------------
     sticks:   dense  smooth     PW     G-vecs:    dense   smooth      PW
     Min        3392    3392    878               210674   210674   27756
     Max        3393    3393    879               210675   210675   27759
     Sum        6785    6785   1757               421349   421349   55515
 


     bravais-lattice index     =            0
     lattice parameter (alat)  =      20.6591  a.u.
     unit-cell volume          =    8817.2783 (a.u.)^3
     number of atoms/cell      =           64
     number of atomic types    =            1
     number of electrons       =       256.00
     number of Kohn-Sham states=          154
     kinetic-energy cutoff     =      50.0000  Ry
     charge density cutoff     =     200.0000  Ry
     convergence threshold     =      1.0E-08
     mixing beta               =       0.7000
     number of iterations used =            8  plain     mixing
     Exchange-correlation      = PBE ( 1  4  3  4 0 0)

     celldm(1)=  20.659106  celldm(2)=   0.000000  celldm(3)=   0.000000
     celldm(4)=   0.000000  celldm(5)=   0.000000  celldm(6)=   0.000000

     crystal axes: (cart. coord. in units of alat)
               a(1) = (   1.000000   0.000000   0.000000 )  
               a(2) = (   0.000000   1.000000   0.000000 )  
               a(3) = (   0.000000   0.000000   1.000000 )  

     reciprocal axes: (cart. coord. in units 2 pi/alat)
               b(1) = (  1.000000  0.000000  0.000000 )  
               b(2) = (  0.000000  1.000000  0.000000 )  
               b(3) = (  0.000000  0.000000  1.000000 )  


     PseudoPot. # 1 for Si read from file:
     ~/kedar/softwares/SSSP_precision_pseudos/Si.pbe-n-rrkjus_psl.1.0.0.UPF
     MD5 check sum: Not computed, couldn't open file
     Pseudo is Ultrasoft + core correction, Zval =  4.0
     Generated using "atomic" code by A. Dal Corso v.5.1
     Using radial grid of 1141 points,  6 beta functions with: 
                l(1) =   0
                l(2) =   0
                l(3) =   1
                l(4) =   1
                l(5) =   2
                l(6) =   2
     Q(r) pseudized with 0 coefficients 


     atomic species   valence    mass     pseudopotential
        Si             4.00    28.08550     Si( 1.00)

     No symmetry found



   Cartesian axes

     site n.     atom                  positions (alat units)
         1           Si  tau(   1) = (   0.4404043   0.4375000   0.4375000  )
         2           Si  tau(   2) = (   0.9375000   0.4375000   0.4375000  )
         3           Si  tau(   3) = (   0.4375000   0.9375000   0.4375000  )
         4           Si  tau(   4) = (   0.9375000   0.9375000   0.4375000  )
         5           Si  tau(   5) = (   0.4375000   0.4375000   0.9375000  )
         6           Si  tau(   6) = (   0.9375000   0.4375000   0.9375000  )
         7           Si  tau(   7) = (   0.4375000   0.9375000   0.9375000  )
         8           Si  tau(   8) = (   0.9375000   0.9375000   0.9375000  )
         9           Si  tau(   9) = (   0.4375000   0.1875000   0.1875000  )
        10           Si  tau(  10) = (   0.9375000   0.1875000   0.1875000  )
        11           Si  tau(  11) = (   0.4375000   0.6875000   0.1875000  )
        12           Si  tau(  12) = (   0.9375000   0.6875000   0.1875000  )
        13           Si  tau(  13) = (   0.4375000   0.1875000   0.6875000  )
        14           Si  tau(  14) = (   0.9375000   0.1875000   0.6875000  )
        15           Si  tau(  15) = (   0.4375000   0.6875000   0.6875000  )
        16           Si  tau(  16) = (   0.9375000   0.6875000   0.6875000  )
        17           Si  tau(  17) = (   0.1875000   0.4375000   0.1875000  )
        18           Si  tau(  18) = (   0.6875000   0.4375000   0.1875000  )
        19           Si  tau(  19) = (   0.1875000   0.9375000   0.1875000  )
        20           Si  tau(  20) = (   0.6875000   0.9375000   0.1875000  )
        21           Si  tau(  21) = (   0.1875000   0.4375000   0.6875000  )
        22           Si  tau(  22) = (   0.6875000   0.4375000   0.6875000  )
        23           Si  tau(  23) = (   0.1875000   0.9375000   0.6875000  )
        24           Si  tau(  24) = (   0.6875000   0.9375000   0.6875000  )
        25           Si  tau(  25) = (   0.1875000   0.1875000   0.4375000  )
        26           Si  tau(  26) = (   0.6875000   0.1875000   0.4375000  )
        27           Si  tau(  27) = (   0.1875000   0.6875000   0.4375000  )
        28           Si  tau(  28) = (   0.6875000   0.6875000   0.4375000  )
        29           Si  tau(  29) = (   0.1875000   0.1875000   0.9375000  )
        30           Si  tau(  30) = (   0.6875000   0.1875000   0.9375000  )
        31           Si  tau(  31) = (   0.1875000   0.6875000   0.9375000  )
        32           Si  tau(  32) = (   0.6875000   0.6875000   0.9375000  )
        33           Si  tau(  33) = (   0.0625000   0.0625000   0.0625000  )
        34           Si  tau(  34) = (   0.5625000   0.0625000   0.0625000  )
        35           Si  tau(  35) = (   0.0625000   0.5595957   0.0625000  )
        36           Si  tau(  36) = (   0.5625000   0.5625000   0.0625000  )
        37           Si  tau(  37) = (   0.0625000   0.0625000   0.5625000  )
        38           Si  tau(  38) = (   0.5625000   0.0625000   0.5625000  )
        39           Si  tau(  39) = (   0.0625000   0.5625000   0.5625000  )
        40           Si  tau(  40) = (   0.5625000   0.5625000   0.5625000  )
        41           Si  tau(  41) = (   0.0625000   0.3125000   0.3125000  )
        42           Si  tau(  42) = (   0.5625000   0.3125000   0.3125000  )
        43           Si  tau(  43) = (   0.0625000   0.8125000   0.3125000  )
        44           Si  tau(  44) = (   0.5625000   0.8125000   0.3125000  )
        45           Si  tau(  45) = (   0.0625000   0.3125000   0.8125000  )
        46           Si  tau(  46) = (   0.5625000   0.3125000   0.8125000  )
        47           Si  tau(  47) = (   0.0625000   0.8125000   0.8125000  )
        48           Si  tau(  48) = (   0.5625000   0.8125000   0.8125000  )
        49           Si  tau(  49) = (   0.3125000   0.0625000   0.3125000  )
        50           Si  tau(  50) = (   0.8125000   0.0625000   0.3125000  )
        51           Si  tau(  51) = (   0.3125000   0.5625000   0.3125000  )
        52           Si  tau(  52) = (   0.8125000   0.5625000   0.3125000  )
        53           Si  tau(  53) = (   0.3125000   0.0625000   0.8125000  )
        54           Si  tau(  54) = (   0.8125000   0.0625000   0.8125000  )
        55           Si  tau(  55) = (   0.3125000   0.5625000   0.8125000  )
        56           Si  tau(  56) = (   0.8125000   0.5625000   0.8125000  )
        57           Si  tau(  57) = (   0.3125000   0.3125000   0.0625000  )
        58           Si  tau(  58) = (   0.8125000   0.3125000   0.0625000  )
        59           Si  tau(  59) = (   0.3125000   0.8125000   0.0625000  )
        60           Si  tau(  60) = (   0.8125000   0.8125000   0.0625000  )
        61           Si  tau(  61) = (   0.3125000   0.3125000   0.5625000  )
        62           Si  tau(  62) = (   0.8125000   0.3125000   0.5625000  )
        63           Si  tau(  63) = (   0.3125000   0.8125000   0.5625000  )
        64           Si  tau(  64) = (   0.8125000   0.8125000   0.5625000  )

     number of k points=     4  gaussian smearing, width (Ry)=  0.0100
                       cart. coord. in units 2pi/alat
        k(    1) = (   0.2500000   0.2500000   0.2500000), wk =   0.5000000
        k(    2) = (  -0.2500000  -0.2500000   0.2500000), wk =   0.5000000
        k(    3) = (  -0.2500000   0.2500000  -0.2500000), wk =   0.5000000
        k(    4) = (   0.2500000  -0.2500000  -0.2500000), wk =   0.5000000

     Dense  grid:   421349 G-vectors     FFT dimensions: (  96,  96,  96)

     Estimated max dynamical RAM per process >       2.05 GB

     Estimated total dynamical RAM >       4.11 GB

     Check: negative/imaginary core charge=   -0.000001    0.000000

     Initial potential from superposition of free atoms

     starting charge  255.96421, renormalised to  256.00000
     Starting wfcs are  256 randomized atomic wfcs

     total cpu time spent up to now is       68.8 secs

     Self-consistent Calculation

     iteration #  1     ecut=    50.00 Ry     beta= 0.70
     Davidson diagonalization with overlap
     ethr =  1.00E-02,  avg # of iterations =  3.0

     Threshold (ethr) on eigenvalues was too large:
     Diagonalizing with lowered threshold

     Davidson diagonalization with overlap
     ethr =  6.78E-04,  avg # of iterations =  2.0

     total cpu time spent up to now is      309.9 secs

     total energy              =    -730.80293313 Ry
     Harris-Foulkes estimate   =    -731.20909214 Ry
     estimated scf accuracy    <       1.72065025 Ry

     iteration #  2     ecut=    50.00 Ry     beta= 0.70
     Davidson diagonalization with overlap
     ethr =  6.72E-04,  avg # of iterations =  1.0

     total cpu time spent up to now is      378.8 secs

     total energy              =    -730.86493491 Ry
     Harris-Foulkes estimate   =    -730.87090333 Ry
     estimated scf accuracy    <       0.08012751 Ry

     iteration #  3     ecut=    50.00 Ry     beta= 0.70
     Davidson diagonalization with overlap
     ethr =  3.13E-05,  avg # of iterations = 10.0

     total cpu time spent up to now is      529.9 secs

     total energy              =    -730.87934977 Ry
     Harris-Foulkes estimate   =    -730.88058389 Ry
     estimated scf accuracy    <       0.00273224 Ry

     iteration #  4     ecut=    50.00 Ry     beta= 0.70
     Davidson diagonalization with overlap
     ethr =  1.07E-06,  avg # of iterations =  4.2

     total cpu time spent up to now is      697.9 secs

     total energy              =    -730.87969454 Ry
     Harris-Foulkes estimate   =    -730.88055313 Ry
     estimated scf accuracy    <       0.00245628 Ry

     iteration #  5     ecut=    50.00 Ry     beta= 0.70
     Davidson diagonalization with overlap
     ethr =  9.59E-07,  avg # of iterations =  2.0

     total cpu time spent up to now is      822.3 secs

     total energy              =    -730.87999038 Ry
     Harris-Foulkes estimate   =    -730.88009254 Ry
     estimated scf accuracy    <       0.00029450 Ry

     iteration #  6     ecut=    50.00 Ry     beta= 0.70
     Davidson diagonalization with overlap
     ethr =  1.15E-07,  avg # of iterations =  3.0

     total cpu time spent up to now is      957.5 secs

     total energy              =    -730.88001293 Ry
     Harris-Foulkes estimate   =    -730.88004129 Ry
     estimated scf accuracy    <       0.00007031 Ry

     iteration #  7     ecut=    50.00 Ry     beta= 0.70
     Davidson diagonalization with overlap
     ethr =  2.75E-08,  avg # of iterations =  2.0

     total cpu time spent up to now is     1125.5 secs

     total energy              =    -730.88002342 Ry
     Harris-Foulkes estimate   =    -730.88002385 Ry
     estimated scf accuracy    <       0.00000281 Ry

     iteration #  8     ecut=    50.00 Ry     beta= 0.70
     Davidson diagonalization with overlap
     ethr =  1.10E-09,  avg # of iterations =  3.0

     total cpu time spent up to now is     1328.3 secs

     total energy              =    -730.88002405 Ry
     Harris-Foulkes estimate   =    -730.88002447 Ry
     estimated scf accuracy    <       0.00000188 Ry

     iteration #  9     ecut=    50.00 Ry     beta= 0.70
     Davidson diagonalization with overlap
     ethr =  7.35E-10,  avg # of iterations =  2.0

     total cpu time spent up to now is     1479.5 secs

     total energy              =    -730.88002396 Ry
     Harris-Foulkes estimate   =    -730.88002420 Ry
     estimated scf accuracy    <       0.00000083 Ry

     iteration # 10     ecut=    50.00 Ry     beta= 0.70
     Davidson diagonalization with overlap
     ethr =  3.24E-10,  avg # of iterations =  1.0

     total cpu time spent up to now is     1642.8 secs

     total energy              =    -730.88002395 Ry
     Harris-Foulkes estimate   =    -730.88002401 Ry
     estimated scf accuracy    <       0.00000017 Ry

     iteration # 11     ecut=    50.00 Ry     beta= 0.70
     Davidson diagonalization with overlap
     ethr =  6.49E-11,  avg # of iterations =  3.0

     total cpu time spent up to now is     1861.0 secs

     total energy              =    -730.88002397 Ry
     Harris-Foulkes estimate   =    -730.88002397 Ry
     estimated scf accuracy    <       0.00000001 Ry

     iteration # 12     ecut=    50.00 Ry     beta= 0.70
     Davidson diagonalization with overlap
     ethr =  4.74E-12,  avg # of iterations =  3.0

     total cpu time spent up to now is     2095.6 secs

     End of self-consistent calculation

          k = 0.2500 0.2500 0.2500 ( 52563 PWs)   bands (ev):

    -5.6274  -5.1021  -5.0994  -5.0968  -4.6029  -4.6000  -4.5976  -4.1660
    -4.0696  -4.0671  -4.0643  -3.6610  -3.6556  -3.6514  -3.6492  -3.6479
    -3.6463  -3.4648  -3.4588  -3.4566  -2.9645  -2.9613  -2.9589  -2.6006
    -2.5928  -2.5908  -2.4339  -2.4305  -2.4262  -2.4238  -2.4224  -2.4210
    -0.8919  -0.8880  -0.8840  -0.8813  -0.8800  -0.8775  -0.7914  -0.7836
    -0.7813  -0.6699  -0.6674  -0.6614  -0.5915  -0.5868  -0.5809   0.1164
     0.1967   0.2028   0.2045   0.2083   0.2107   0.2134   1.0713   1.0771
     1.0815   1.4102   1.4107   1.4151   2.0191   2.0201   2.0216   2.0231
     2.0246   2.0270   2.0811   2.0820   2.0849   2.6279   2.6327   2.6334
     2.7329   2.7344   2.7362   2.7385   2.7412   2.7430   2.7901   2.7914
     2.7958   3.0947   3.0970   3.1009   3.1017   3.1038   3.1045   3.3648
     3.3655   3.3673   3.3788   3.3792   3.3840   3.7224   3.7258   3.7287
     3.7414   3.7489   3.7498   3.8310   3.8343   3.8356   4.0972   4.0997
     4.1047   4.1075   4.1080   4.1093   4.1451   4.1487   4.1502   4.4027
     4.4643   4.4653   4.4690   4.7063   4.7101   4.7116   4.7628   4.7677
     4.7716   4.9280   4.9330   5.2354   5.2404   5.2423   5.7167   5.7224
     6.9287   6.9329   6.9342   7.3670   7.3719   7.3750   7.5982   7.8541
     7.8588   7.8608   7.9813   7.9832   7.9894   8.1425   8.1455   8.1479
     8.1640   8.1648   8.1685   8.3881   8.3913   8.3938   8.3976   8.3982
     8.4007   8.4465

          k =-0.2500-0.2500 0.2500 ( 52563 PWs)   bands (ev):

    -5.6275  -5.1017  -5.0993  -5.0966  -4.6028  -4.6005  -4.5976  -4.1681
    -4.0702  -4.0676  -4.0652  -3.6566  -3.6546  -3.6529  -3.6523  -3.6471
    -3.6420  -3.4622  -3.4599  -3.4537  -2.9681  -2.9656  -2.9624  -2.5977
    -2.5960  -2.5884  -2.4308  -2.4301  -2.4275  -2.4273  -2.4207  -2.4177
    -0.8897  -0.8886  -0.8872  -0.8858  -0.8799  -0.8772  -0.7917  -0.7890
    -0.7809  -0.6740  -0.6690  -0.6663  -0.5835  -0.5773  -0.5723   0.1239
     0.1976   0.1990   0.1997   0.2028   0.2072   0.2122   1.0766   1.0811
     1.0869   1.4088   1.4132   1.4137   2.0183   2.0206   2.0217   2.0224
     2.0247   2.0263   2.0781   2.0810   2.0820   2.6329   2.6346   2.6381
     2.7293   2.7322   2.7339   2.7364   2.7383   2.7405   2.7849   2.7887
     2.7901   3.0968   3.0987   3.0991   3.1006   3.1033   3.1063   3.3606
     3.3643   3.3657   3.3752   3.3793   3.3796   3.7269   3.7294   3.7321
     3.7499   3.7528   3.7571   3.8292   3.8306   3.8341   4.1049   4.1060
     4.1073   4.1091   4.1145   4.1173   4.1427   4.1445   4.1490   4.4106
     4.4575   4.4628   4.4646   4.7032   4.7045   4.7083   4.7723   4.7769
     4.7819   4.9255   4.9306   5.2309   5.2328   5.2378   5.7120   5.7175
     6.9251   6.9284   6.9322   7.3660   7.3691   7.3742   7.5951   7.8515
     7.8537   7.8585   7.9826   7.9889   7.9908   8.1421   8.1437   8.1473
     8.1600   8.1655   8.1673   8.3924   8.3943   8.3970   8.3997   8.4024
     8.4057   8.4421

          k =-0.2500 0.2500-0.2500 ( 52563 PWs)   bands (ev):

    -5.6275  -5.1029  -5.0997  -5.0953  -4.6039  -4.6005  -4.5963  -4.1672
    -4.0709  -4.0678  -4.0633  -3.6593  -3.6545  -3.6520  -3.6515  -3.6502
    -3.6410  -3.4639  -3.4593  -3.4548  -2.9675  -2.9637  -2.9592  -2.5995
    -2.5944  -2.5892  -2.4336  -2.4286  -2.4266  -2.4258  -2.4250  -2.4164
    -0.8938  -0.8871  -0.8844  -0.8833  -0.8815  -0.8752  -0.7923  -0.7862
    -0.7810  -0.6735  -0.6681  -0.6623  -0.5881  -0.5811  -0.5770   0.1201
     0.1932   0.2008   0.2039   0.2053   0.2102   0.2141   1.0744   1.0794
     1.0834   1.4078   1.4120   1.4161   2.0176   2.0194   2.0224   2.0236
     2.0244   2.0271   2.0786   2.0818   2.0844   2.6303   2.6332   2.6363
     2.7310   2.7323   2.7348   2.7368   2.7400   2.7432   2.7868   2.7895
     2.7943   3.0935   3.0986   3.0997   3.1011   3.1025   3.1084   3.3616
     3.3654   3.3667   3.3755   3.3795   3.3835   3.7235   3.7278   3.7309
     3.7462   3.7501   3.7541   3.8287   3.8326   3.8360   4.0992   4.1042
     4.1067   4.1074   4.1108   4.1147   4.1422   4.1468   4.1509   4.4065
     4.4603   4.4645   4.4671   4.7030   4.7074   4.7113   4.7681   4.7723
     4.7763   4.9249   4.9336   5.2311   5.2368   5.2419   5.7122   5.7221
     6.9264   6.9307   6.9337   7.3649   7.3720   7.3747   7.5967   7.8514
     7.8576   7.8599   7.9813   7.9861   7.9906   8.1418   8.1454   8.1469
     8.1607   8.1660   8.1685   8.3887   8.3934   8.3956   8.3976   8.4008
     8.4045   8.4443

          k = 0.2500-0.2500-0.2500 ( 52563 PWs)   bands (ev):

    -5.6275  -5.1027  -5.0985  -5.0968  -4.6034  -4.5995  -4.5978  -4.1670
    -4.0708  -4.0665  -4.0648  -3.6607  -3.6536  -3.6528  -3.6503  -3.6480
    -3.6429  -3.4639  -3.4594  -3.4547  -2.9674  -2.9630  -2.9600  -2.5995
    -2.5943  -2.5893  -2.4346  -2.4289  -2.4272  -2.4249  -2.4230  -2.4174
    -0.8912  -0.8877  -0.8872  -0.8825  -0.8811  -0.8755  -0.7920  -0.7864
    -0.7809  -0.6735  -0.6682  -0.6624  -0.5891  -0.5827  -0.5743   0.1202
     0.1981   0.1996   0.2010   0.2063   0.2078   0.2147   1.0728   1.0789
     1.0855   1.4074   1.4120   1.4164   2.0167   2.0207   2.0219   2.0227
     2.0250   2.0276   2.0790   2.0812   2.0847   2.6303   2.6332   2.6363
     2.7303   2.7329   2.7344   2.7379   2.7405   2.7420   2.7859   2.7909
     2.7941   3.0948   3.0983   3.1002   3.1012   3.1032   3.1059   3.3621
     3.3656   3.3668   3.3750   3.3796   3.3831   3.7248   3.7277   3.7306
     3.7451   3.7502   3.7541   3.8298   3.8321   3.8355   4.0998   4.1043
     4.1061   4.1082   4.1091   4.1153   4.1436   4.1461   4.1505   4.4066
     4.4603   4.4645   4.4671   4.7042   4.7068   4.7108   4.7662   4.7718
     4.7788   4.9249   4.9336   5.2326   5.2360   5.2413   5.7122   5.7220
     6.9264   6.9307   6.9337   7.3672   7.3687   7.3757   7.5967   7.8527
     7.8549   7.8612   7.9813   7.9861   7.9906   8.1409   8.1446   8.1486
     8.1612   8.1660   8.1682   8.3904   8.3922   8.3952   8.3976   8.4012
     8.4040   8.4443

     the Fermi energy is     6.3203 ev

!    total energy              =    -730.88002397 Ry
     Harris-Foulkes estimate   =    -730.88002397 Ry
     estimated scf accuracy    <          5.6E-09 Ry

     The total energy is the sum of the following terms:

     one-electron contribution =     160.47288043 Ry
     hartree contribution      =      35.78735039 Ry
     xc contribution           =    -393.13399596 Ry
     ewald contribution        =    -534.00625883 Ry
     smearing contrib. (-TS)   =      -0.00000000 Ry

     convergence has been achieved in  12 iterations

     Forces acting on atoms (cartesian axes, Ry/au):

     atom    1 type  1   force =    -0.01607893   -0.00025817   -0.00002914
     atom    2 type  1   force =    -0.00002636    0.00005903   -0.00003916
     atom    3 type  1   force =     0.00002570    0.00001891   -0.00003057
     atom    4 type  1   force =    -0.00003496   -0.00002633   -0.00002468
     atom    5 type  1   force =     0.00001701    0.00005909   -0.00004852
     atom    6 type  1   force =    -0.00274285   -0.00395887   -0.00273483
     atom    7 type  1   force =    -0.00049943   -0.00002662   -0.00002715
     atom    8 type  1   force =    -0.00001315    0.00000996   -0.00003786
     atom    9 type  1   force =    -0.00050333    0.00008591    0.00008546
     atom   10 type  1   force =     0.00003787    0.00002008   -0.00002847
     atom   11 type  1   force =    -0.00048837    0.00016699   -0.00016101
     atom   12 type  1   force =     0.00251177   -0.00383060   -0.00252063
     atom   13 type  1   force =    -0.00049430   -0.00009092    0.00008036
     atom   14 type  1   force =     0.00003157   -0.00003946   -0.00001653
     atom   15 type  1   force =    -0.00050097   -0.00036860   -0.00014194
     atom   16 type  1   force =     0.00004993    0.00004855   -0.00004454
     atom   17 type  1   force =     0.00296674   -0.00406950    0.00295789
     atom   18 type  1   force =     0.00027603   -0.00005521   -0.00017970
     atom   19 type  1   force =     0.00008092    0.00000059   -0.00004032
     atom   20 type  1   force =     0.00006940   -0.00003668    0.00010166
     atom   21 type  1   force =     0.00027997    0.00016864   -0.00018550
     atom   22 type  1   force =     0.00026601   -0.00014358    0.00025601
     atom   23 type  1   force =     0.00007030   -0.00001639    0.00010234
     atom   24 type  1   force =     0.00007570    0.00002847   -0.00004381
     atom   25 type  1   force =     0.00020108    0.00019595   -0.00008426
     atom   26 type  1   force =     0.00020747   -0.00020911   -0.00008376
     atom   27 type  1   force =     0.00018012   -0.00016848    0.00014500
     atom   28 type  1   force =     0.00020910   -0.00002525    0.00014231
     atom   29 type  1   force =     0.00000594   -0.00006623    0.00002786
     atom   30 type  1   force =     0.00001809    0.00004533    0.00002011
     atom   31 type  1   force =    -0.00246724   -0.00376339    0.00252074
     atom   32 type  1   force =     0.00000864   -0.00001715    0.00005992
     atom   33 type  1   force =    -0.00002057    0.00000722    0.00003064
     atom   34 type  1   force =     0.00025974    0.00003375    0.00002725
     atom   35 type  1   force =     0.00002612    0.01608109    0.00002439
     atom   36 type  1   force =    -0.00005843   -0.00000571    0.00003885
     atom   37 type  1   force =     0.00002589    0.00003166    0.00002765
     atom   38 type  1   force =    -0.00005792    0.00001145    0.00004953
     atom   39 type  1   force =    -0.00001128   -0.00001841    0.00003681
     atom   40 type  1   force =     0.00395870    0.00321251    0.00273634
     atom   41 type  1   force =     0.00010344   -0.00027444    0.00019113
     atom   42 type  1   force =     0.00396826   -0.00277942   -0.00281297
     atom   43 type  1   force =     0.00013658   -0.00025626   -0.00025220
     atom   44 type  1   force =    -0.00004833   -0.00008261    0.00002756
     atom   45 type  1   force =    -0.00008764   -0.00026504   -0.00025294
     atom   46 type  1   force =    -0.00006811   -0.00009401    0.00003796
     atom   47 type  1   force =    -0.00013169   -0.00026096    0.00019429
     atom   48 type  1   force =     0.00025039   -0.00007100   -0.00010421
     atom   49 type  1   force =    -0.00006602   -0.00003738    0.00004054
     atom   50 type  1   force =     0.00001865   -0.00002897    0.00003834
     atom   51 type  1   force =     0.00372473   -0.00197975    0.00239734
     atom   52 type  1   force =    -0.00012067    0.00048828    0.00014627
     atom   53 type  1   force =     0.00026498   -0.00003062    0.00001849
     atom   54 type  1   force =    -0.00001117   -0.00003344    0.00004085
     atom   55 type  1   force =     0.00005342    0.00047522   -0.00007207
     atom   56 type  1   force =     0.00014299    0.00050296    0.00014096
     atom   57 type  1   force =     0.00017191   -0.00018594    0.00007852
     atom   58 type  1   force =    -0.00019990   -0.00020847   -0.00014035
     atom   59 type  1   force =     0.00003095   -0.00020336    0.00008266
     atom   60 type  1   force =     0.00020362   -0.00020027   -0.00014142
     atom   61 type  1   force =     0.00376444    0.00246619   -0.00250118
     atom   62 type  1   force =     0.00006462   -0.00000698   -0.00004714
     atom   63 type  1   force =     0.00002155   -0.00000728   -0.00004129
     atom   64 type  1   force =    -0.00004874   -0.00001697   -0.00003787

     Total force =     0.027479     Total SCF correction =     0.000148

     Writing output data file pwscf.save/
 
     init_run     :     42.68s CPU     68.00s WALL (       1 calls)
     electrons    :   1115.39s CPU   2026.80s WALL (       1 calls)
     forces       :     20.01s CPU     51.90s WALL (       1 calls)

     Called by init_run:
     wfcinit      :     41.09s CPU     64.81s WALL (       1 calls)
     potinit      :      0.38s CPU      0.64s WALL (       1 calls)
     hinit0       :      0.45s CPU      0.81s WALL (       1 calls)

     Called by electrons:
     c_bands      :    949.86s CPU   1707.22s WALL (      13 calls)
     sum_band     :    150.16s CPU    284.88s WALL (      13 calls)
     v_of_rho     :      3.71s CPU      6.89s WALL (      13 calls)
     newd         :     11.30s CPU     27.13s WALL (      13 calls)
     mix_rho      :      1.16s CPU      2.31s WALL (      13 calls)

     Called by c_bands:
     init_us_2    :     11.84s CPU     21.45s WALL (     112 calls)
     cegterg      :    858.36s CPU   1544.48s WALL (      52 calls)

     Called by sum_band:
     sum_band:bec :      0.06s CPU      0.07s WALL (      52 calls)
     addusdens    :     11.99s CPU     28.28s WALL (      13 calls)

     Called by *egterg:
     h_psi        :    629.56s CPU   1129.32s WALL (     213 calls)
     s_psi        :    126.50s CPU    222.49s WALL (     213 calls)
     g_psi        :      1.10s CPU      2.01s WALL (     157 calls)
     cdiaghg      :     10.63s CPU     18.14s WALL (     205 calls)

     Called by h_psi:
     h_psi:pot    :    627.56s CPU   1122.04s WALL (     213 calls)
     h_psi:calbec :    133.37s CPU    235.32s WALL (     213 calls)
     vloc_psi     :    365.75s CPU    662.90s WALL (     213 calls)
     add_vuspsi   :    128.43s CPU    223.82s WALL (     213 calls)

     General routines
     calbec       :    194.43s CPU    358.73s WALL (     281 calls)
     fft          :      3.22s CPU      6.61s WALL (     156 calls)
     ffts         :      0.20s CPU      0.34s WALL (      13 calls)
     fftw         :    371.51s CPU    705.54s WALL (   50902 calls)
 
     Parallel routines
     fft_scatt_xy :     69.83s CPU     93.25s WALL (   51071 calls)
     fft_scatt_yz :    117.78s CPU    351.30s WALL (   51071 calls)
 
     PWSCF        : 19m39.00s CPU    35m49.29s WALL

 
   This run was terminated on:  16:14:14  14Feb2020            

=------------------------------------------------------------------------------=
   JOB DONE.
=------------------------------------------------------------------------------=
