
     Program PWSCF v.6.3MaX starts on 13Feb2020 at 14:57:39 

     This program is part of the open-source Quantum ESPRESSO suite
     for quantum simulation of materials; please cite
         "P. Giannozzi et al., J. Phys.:Condens. Matter 21 395502 (2009);
         "P. Giannozzi et al., J. Phys.:Condens. Matter 29 465901 (2017);
          URL http://www.quantum-espresso.org", 
     in publications or presentations arising from this work. More details at
     http://www.quantum-espresso.org/quote

     Parallel version (MPI), running on     4 processors

     MPI processes distributed on     1 nodes
     R & G space division:  proc/nbgrp/npool/nimage =       4
     Waiting for input...
     Reading input from standard input

     Current dimensions of program PWSCF are:
     Max number of different atomic species (ntypx) = 10
     Max number of k-points (npk) =  40000
     Max angular momentum in pseudopotentials (lmaxx) =  3

     Subspace diagonalization in iterative solution of the eigenvalue problem:
     a serial algorithm will be used

 
     Parallelization info
     --------------------
     sticks:   dense  smooth     PW     G-vecs:    dense   smooth      PW
     Min        1695    1695    439               105337   105337   13877
     Max        1697    1697    440               105338   105338   13880
     Sum        6785    6785   1757               421349   421349   55515
 


     bravais-lattice index     =            0
     lattice parameter (alat)  =      20.6591  a.u.
     unit-cell volume          =    8817.2783 (a.u.)^3
     number of atoms/cell      =           64
     number of atomic types    =            1
     number of electrons       =       256.00
     number of Kohn-Sham states=          154
     kinetic-energy cutoff     =      50.0000  Ry
     charge density cutoff     =     200.0000  Ry
     convergence threshold     =      1.0E-08
     mixing beta               =       0.7000
     number of iterations used =            8  plain     mixing
     Exchange-correlation      = PBE ( 1  4  3  4 0 0)

     celldm(1)=  20.659106  celldm(2)=   0.000000  celldm(3)=   0.000000
     celldm(4)=   0.000000  celldm(5)=   0.000000  celldm(6)=   0.000000

     crystal axes: (cart. coord. in units of alat)
               a(1) = (   1.000000   0.000000   0.000000 )  
               a(2) = (   0.000000   1.000000   0.000000 )  
               a(3) = (   0.000000   0.000000   1.000000 )  

     reciprocal axes: (cart. coord. in units 2 pi/alat)
               b(1) = (  1.000000  0.000000  0.000000 )  
               b(2) = (  0.000000  1.000000  0.000000 )  
               b(3) = (  0.000000  0.000000  1.000000 )  


     PseudoPot. # 1 for Si read from file:
     ~/kedar/softwares/SSSP_precision_pseudos/Si.pbe-n-rrkjus_psl.1.0.0.UPF
     MD5 check sum: Not computed, couldn't open file
     Pseudo is Ultrasoft + core correction, Zval =  4.0
     Generated using "atomic" code by A. Dal Corso v.5.1
     Using radial grid of 1141 points,  6 beta functions with: 
                l(1) =   0
                l(2) =   0
                l(3) =   1
                l(4) =   1
                l(5) =   2
                l(6) =   2
     Q(r) pseudized with 0 coefficients 


     atomic species   valence    mass     pseudopotential
        Si             4.00    28.08550     Si( 1.00)

     No symmetry found



   Cartesian axes

     site n.     atom                  positions (alat units)
         1           Si  tau(   1) = (   0.4383506   0.4354464   0.4375000  )
         2           Si  tau(   2) = (   0.9375000   0.4375000   0.4375000  )
         3           Si  tau(   3) = (   0.4375000   0.9375000   0.4375000  )
         4           Si  tau(   4) = (   0.9375000   0.9375000   0.4375000  )
         5           Si  tau(   5) = (   0.4375000   0.4375000   0.9375000  )
         6           Si  tau(   6) = (   0.9375000   0.4375000   0.9375000  )
         7           Si  tau(   7) = (   0.4375000   0.9375000   0.9375000  )
         8           Si  tau(   8) = (   0.9375000   0.9375000   0.9375000  )
         9           Si  tau(   9) = (   0.4375000   0.1875000   0.1875000  )
        10           Si  tau(  10) = (   0.9375000   0.1875000   0.1875000  )
        11           Si  tau(  11) = (   0.4375000   0.6875000   0.1875000  )
        12           Si  tau(  12) = (   0.9375000   0.6875000   0.1875000  )
        13           Si  tau(  13) = (   0.4375000   0.1875000   0.6875000  )
        14           Si  tau(  14) = (   0.9375000   0.1875000   0.6875000  )
        15           Si  tau(  15) = (   0.4375000   0.6875000   0.6875000  )
        16           Si  tau(  16) = (   0.9375000   0.6875000   0.6875000  )
        17           Si  tau(  17) = (   0.1875000   0.4375000   0.1875000  )
        18           Si  tau(  18) = (   0.6875000   0.4375000   0.1875000  )
        19           Si  tau(  19) = (   0.1875000   0.9375000   0.1875000  )
        20           Si  tau(  20) = (   0.6875000   0.9375000   0.1875000  )
        21           Si  tau(  21) = (   0.1875000   0.4375000   0.6875000  )
        22           Si  tau(  22) = (   0.6875000   0.4375000   0.6875000  )
        23           Si  tau(  23) = (   0.1875000   0.9375000   0.6875000  )
        24           Si  tau(  24) = (   0.6875000   0.9375000   0.6875000  )
        25           Si  tau(  25) = (   0.1875000   0.1875000   0.4375000  )
        26           Si  tau(  26) = (   0.6875000   0.1875000   0.4375000  )
        27           Si  tau(  27) = (   0.1875000   0.6875000   0.4375000  )
        28           Si  tau(  28) = (   0.6875000   0.6875000   0.4375000  )
        29           Si  tau(  29) = (   0.1875000   0.1875000   0.9375000  )
        30           Si  tau(  30) = (   0.6875000   0.1875000   0.9375000  )
        31           Si  tau(  31) = (   0.1875000   0.6875000   0.9375000  )
        32           Si  tau(  32) = (   0.6875000   0.6875000   0.9375000  )
        33           Si  tau(  33) = (   0.0625000   0.0625000   0.0625000  )
        34           Si  tau(  34) = (   0.5625000   0.0625000   0.0625000  )
        35           Si  tau(  35) = (   0.0625000   0.5625000   0.0625000  )
        36           Si  tau(  36) = (   0.5625000   0.5625000   0.0625000  )
        37           Si  tau(  37) = (   0.0625000   0.0625000   0.5625000  )
        38           Si  tau(  38) = (   0.5625000   0.0625000   0.5625000  )
        39           Si  tau(  39) = (   0.0625000   0.5625000   0.5625000  )
        40           Si  tau(  40) = (   0.5625000   0.5625000   0.5625000  )
        41           Si  tau(  41) = (   0.0625000   0.3125000   0.3125000  )
        42           Si  tau(  42) = (   0.5625000   0.3125000   0.3125000  )
        43           Si  tau(  43) = (   0.0625000   0.8125000   0.3125000  )
        44           Si  tau(  44) = (   0.5625000   0.8125000   0.3125000  )
        45           Si  tau(  45) = (   0.0625000   0.3125000   0.8125000  )
        46           Si  tau(  46) = (   0.5625000   0.3125000   0.8125000  )
        47           Si  tau(  47) = (   0.0625000   0.8125000   0.8125000  )
        48           Si  tau(  48) = (   0.5625000   0.8125000   0.8125000  )
        49           Si  tau(  49) = (   0.3125000   0.0625000   0.3125000  )
        50           Si  tau(  50) = (   0.8125000   0.0625000   0.3125000  )
        51           Si  tau(  51) = (   0.3125000   0.5625000   0.3125000  )
        52           Si  tau(  52) = (   0.8125000   0.5625000   0.3125000  )
        53           Si  tau(  53) = (   0.3125000   0.0625000   0.8125000  )
        54           Si  tau(  54) = (   0.8125000   0.0625000   0.8125000  )
        55           Si  tau(  55) = (   0.3125000   0.5625000   0.8125000  )
        56           Si  tau(  56) = (   0.8125000   0.5625000   0.8125000  )
        57           Si  tau(  57) = (   0.3125000   0.3125000   0.0625000  )
        58           Si  tau(  58) = (   0.8125000   0.3125000   0.0625000  )
        59           Si  tau(  59) = (   0.3125000   0.8125000   0.0625000  )
        60           Si  tau(  60) = (   0.8125000   0.8125000   0.0625000  )
        61           Si  tau(  61) = (   0.3125000   0.3125000   0.5625000  )
        62           Si  tau(  62) = (   0.8125000   0.3125000   0.5625000  )
        63           Si  tau(  63) = (   0.3125000   0.8125000   0.5625000  )
        64           Si  tau(  64) = (   0.8125000   0.8125000   0.5625000  )

     number of k points=     4  gaussian smearing, width (Ry)=  0.0100
                       cart. coord. in units 2pi/alat
        k(    1) = (   0.2500000   0.2500000   0.2500000), wk =   0.5000000
        k(    2) = (  -0.2500000  -0.2500000   0.2500000), wk =   0.5000000
        k(    3) = (  -0.2500000   0.2500000  -0.2500000), wk =   0.5000000
        k(    4) = (   0.2500000  -0.2500000  -0.2500000), wk =   0.5000000

     Dense  grid:   421349 G-vectors     FFT dimensions: (  96,  96,  96)

     Estimated max dynamical RAM per process >       1.03 GB

     Estimated total dynamical RAM >       4.12 GB

     Check: negative/imaginary core charge=   -0.000001    0.000000

     Initial potential from superposition of free atoms

     starting charge  255.96421, renormalised to  256.00000
     Starting wfcs are  256 randomized atomic wfcs

     total cpu time spent up to now is       24.7 secs

     Self-consistent Calculation

     iteration #  1     ecut=    50.00 Ry     beta= 0.70
     Davidson diagonalization with overlap
     ethr =  1.00E-02,  avg # of iterations =  3.0

     Threshold (ethr) on eigenvalues was too large:
     Diagonalizing with lowered threshold

     Davidson diagonalization with overlap
     ethr =  6.78E-04,  avg # of iterations =  2.0

     total cpu time spent up to now is      123.3 secs

     total energy              =    -730.80380807 Ry
     Harris-Foulkes estimate   =    -731.20991505 Ry
     estimated scf accuracy    <       1.72060296 Ry

     iteration #  2     ecut=    50.00 Ry     beta= 0.70
     Davidson diagonalization with overlap
     ethr =  6.72E-04,  avg # of iterations =  1.0

     total cpu time spent up to now is      166.6 secs

     total energy              =    -730.86569796 Ry
     Harris-Foulkes estimate   =    -730.87163805 Ry
     estimated scf accuracy    <       0.08011054 Ry

     iteration #  3     ecut=    50.00 Ry     beta= 0.70
     Davidson diagonalization with overlap
     ethr =  3.13E-05,  avg # of iterations =  9.5

     total cpu time spent up to now is      241.4 secs

     total energy              =    -730.88009721 Ry
     Harris-Foulkes estimate   =    -730.88122171 Ry
     estimated scf accuracy    <       0.00260934 Ry

     iteration #  4     ecut=    50.00 Ry     beta= 0.70
     Davidson diagonalization with overlap
     ethr =  1.02E-06,  avg # of iterations =  6.8

     total cpu time spent up to now is      302.5 secs

     total energy              =    -730.88061760 Ry
     Harris-Foulkes estimate   =    -730.88096807 Ry
     estimated scf accuracy    <       0.00099808 Ry

     iteration #  5     ecut=    50.00 Ry     beta= 0.70
     Davidson diagonalization with overlap
     ethr =  3.90E-07,  avg # of iterations =  2.0

     total cpu time spent up to now is      346.8 secs

     total energy              =    -730.88068621 Ry
     Harris-Foulkes estimate   =    -730.88075846 Ry
     estimated scf accuracy    <       0.00018197 Ry

     iteration #  6     ecut=    50.00 Ry     beta= 0.70
     Davidson diagonalization with overlap
     ethr =  7.11E-08,  avg # of iterations =  3.0

     total cpu time spent up to now is      392.8 secs

     total energy              =    -730.88070149 Ry
     Harris-Foulkes estimate   =    -730.88071445 Ry
     estimated scf accuracy    <       0.00003525 Ry

     iteration #  7     ecut=    50.00 Ry     beta= 0.70
     Davidson diagonalization with overlap
     ethr =  1.38E-08,  avg # of iterations =  2.0

     total cpu time spent up to now is      439.3 secs

     total energy              =    -730.88070806 Ry
     Harris-Foulkes estimate   =    -730.88070849 Ry
     estimated scf accuracy    <       0.00000287 Ry

     iteration #  8     ecut=    50.00 Ry     beta= 0.70
     Davidson diagonalization with overlap
     ethr =  1.12E-09,  avg # of iterations =  3.0

     total cpu time spent up to now is      483.8 secs

     total energy              =    -730.88070815 Ry
     Harris-Foulkes estimate   =    -730.88070860 Ry
     estimated scf accuracy    <       0.00000156 Ry

     iteration #  9     ecut=    50.00 Ry     beta= 0.70
     Davidson diagonalization with overlap
     ethr =  6.09E-10,  avg # of iterations =  1.0

     total cpu time spent up to now is      518.6 secs

     total energy              =    -730.88070813 Ry
     Harris-Foulkes estimate   =    -730.88070825 Ry
     estimated scf accuracy    <       0.00000038 Ry

     iteration # 10     ecut=    50.00 Ry     beta= 0.70
     Davidson diagonalization with overlap
     ethr =  1.47E-10,  avg # of iterations =  2.0

     total cpu time spent up to now is      556.4 secs

     total energy              =    -730.88070814 Ry
     Harris-Foulkes estimate   =    -730.88070817 Ry
     estimated scf accuracy    <       0.00000007 Ry

     iteration # 11     ecut=    50.00 Ry     beta= 0.70
     Davidson diagonalization with overlap
     ethr =  2.87E-11,  avg # of iterations =  3.0

     total cpu time spent up to now is      599.3 secs

     total energy              =    -730.88070815 Ry
     Harris-Foulkes estimate   =    -730.88070815 Ry
     estimated scf accuracy    <       0.00000001 Ry

     iteration # 12     ecut=    50.00 Ry     beta= 0.70
     Davidson diagonalization with overlap
     ethr =  4.44E-12,  avg # of iterations =  5.5

     total cpu time spent up to now is      646.4 secs

     End of self-consistent calculation

          k = 0.2500 0.2500 0.2500 ( 52563 PWs)   bands (ev):

    -5.6274  -5.1011  -5.0995  -5.0969  -4.6020  -4.6005  -4.5978  -4.1670
    -4.0693  -4.0676  -4.0650  -3.6556  -3.6525  -3.6515  -3.6513  -3.6510
    -3.6453  -3.4611  -3.4599  -3.4564  -2.9661  -2.9639  -2.9613  -2.5964
    -2.5949  -2.5913  -2.4301  -2.4274  -2.4263  -2.4261  -2.4257  -2.4200
    -0.8891  -0.8857  -0.8841  -0.8840  -0.8837  -0.8781  -0.7889  -0.7872
    -0.7834  -0.6713  -0.6687  -0.6655  -0.5830  -0.5818  -0.5789   0.1210
     0.1990   0.2022   0.2043   0.2047   0.2048   0.2104   1.0776   1.0790
     1.0822   1.4102   1.4114   1.4143   2.0201   2.0209   2.0224   2.0227
     2.0239   2.0251   2.0802   2.0806   2.0830   2.6326   2.6334   2.6353
     2.7328   2.7341   2.7365   2.7367   2.7383   2.7391   2.7875   2.7891
     2.7920   3.0973   3.0994   3.1004   3.1007   3.1015   3.1047   3.3632
     3.3650   3.3660   3.3771   3.3783   3.3811   3.7269   3.7279   3.7305
     3.7488   3.7497   3.7524   3.8302   3.8323   3.8340   4.1052   4.1061
     4.1071   4.1072   4.1091   4.1119   4.1439   4.1462   4.1485   4.4075
     4.4615   4.4637   4.4650   4.7046   4.7072   4.7087   4.7717   4.7722
     4.7751   4.9266   4.9312   5.2329   5.2363   5.2385   5.7140   5.7190
     6.9282   6.9296   6.9322   7.3674   7.3708   7.3733   7.5965   7.8534
     7.8563   7.8587   7.9839   7.9872   7.9885   8.1426   8.1457   8.1467
     8.1628   8.1648   8.1666   8.3933   8.3962   8.3968   8.3972   8.3990
     8.4015   8.4435

          k =-0.2500-0.2500 0.2500 ( 52563 PWs)   bands (ev):

    -5.6273  -5.1016  -5.0988  -5.0973  -4.6024  -4.5996  -4.5982  -4.1666
    -4.0696  -4.0668  -4.0652  -3.6575  -3.6515  -3.6512  -3.6510  -3.6500
    -3.6471  -3.4621  -3.4587  -3.4575  -2.9655  -2.9628  -2.9607  -2.5974
    -2.5936  -2.5921  -2.4319  -2.4263  -2.4259  -2.4258  -2.4247  -2.4219
    -0.8903  -0.8841  -0.8839  -0.8837  -0.8822  -0.8793  -0.7892  -0.7855
    -0.7837  -0.6708  -0.6678  -0.6649  -0.5853  -0.5825  -0.5814   0.1195
     0.1987   0.2043   0.2044   0.2048   0.2070   0.2102   1.0760   1.0792
     1.0806   1.4096   1.4126   1.4138   2.0198   2.0212   2.0225   2.0228
     2.0242   2.0249   2.0802   2.0823   2.0827   2.6315   2.6334   2.6341
     2.7339   2.7348   2.7365   2.7367   2.7388   2.7400   2.7879   2.7908
     2.7926   3.0965   3.0997   3.1006   3.1009   3.1019   3.1040   3.3640
     3.3652   3.3666   3.3769   3.3799   3.3812   3.7255   3.7282   3.7292
     3.7468   3.7496   3.7505   3.8309   3.8325   3.8346   4.1023   4.1053
     4.1072   4.1074   4.1084   4.1092   4.1448   4.1464   4.1490   4.4058
     4.4630   4.4639   4.4662   4.7057   4.7074   4.7100   4.7692   4.7717
     4.7721   4.9272   4.9317   5.2346   5.2365   5.2401   5.7150   5.7200
     6.9286   6.9312   6.9325   7.3680   7.3706   7.3738   7.5971   7.8543
     7.8567   7.8594   7.9839   7.9854   7.9885   8.1435   8.1448   8.1473
     8.1632   8.1648   8.1672   8.3923   8.3950   8.3968   8.3972   8.3978
     8.4003   8.4444

          k =-0.2500 0.2500-0.2500 ( 52563 PWs)   bands (ev):

    -5.6274  -5.1005  -5.0995  -5.0974  -4.6015  -4.6004  -4.5985  -4.1674
    -4.0688  -4.0676  -4.0658  -3.6543  -3.6520  -3.6517  -3.6511  -3.6510
    -3.6462  -3.4608  -3.4596  -3.4565  -2.9664  -2.9639  -2.9626  -2.5958
    -2.5946  -2.5918  -2.4292  -2.4268  -2.4265  -2.4260  -2.4257  -2.4210
    -0.8883  -0.8851  -0.8844  -0.8839  -0.8837  -0.8801  -0.7886  -0.7872
    -0.7846  -0.6714  -0.6688  -0.6671  -0.5830  -0.5822  -0.5746   0.1221
     0.1993   0.2026   0.2041   0.2046   0.2048   0.2075   1.0777   1.0791
     1.0842   1.4103   1.4117   1.4139   2.0199   2.0212   2.0225   2.0230
     2.0235   2.0249   2.0793   2.0807   2.0827   2.6334   2.6339   2.6358
     2.7327   2.7332   2.7366   2.7368   2.7377   2.7385   2.7873   2.7887
     2.7904   3.0984   3.0996   3.1002   3.1004   3.1017   3.1040   3.3631
     3.3649   3.3652   3.3771   3.3782   3.3801   3.7275   3.7285   3.7307
     3.7494   3.7503   3.7544   3.8303   3.8321   3.8330   4.1064   4.1068
     4.1071   4.1074   4.1093   4.1148   4.1440   4.1460   4.1472   4.4088
     4.4610   4.4634   4.4636   4.7045   4.7070   4.7074   4.7720   4.7724
     4.7789   4.9270   4.9301   5.2327   5.2360   5.2365   5.7141   5.7175
     6.9285   6.9288   6.9314   7.3682   7.3704   7.3723   7.5961   7.8539
     7.8555   7.8576   7.9846   7.9876   7.9885   8.1432   8.1451   8.1464
     8.1630   8.1649   8.1656   8.3947   8.3967   8.3969   8.3978   8.4007
     8.4428   8.6559

          k = 0.2500-0.2500-0.2500 ( 52563 PWs)   bands (ev):

    -5.6273  -5.1010  -5.0989  -5.0979  -4.6018  -4.5997  -4.5988  -4.1663
    -4.0687  -4.0668  -4.0656  -3.6566  -3.6515  -3.6514  -3.6508  -3.6506
    -3.6484  -3.4621  -3.4590  -3.4579  -2.9641  -2.9628  -2.9604  -2.5968
    -2.5938  -2.5927  -2.4309  -2.4264  -2.4261  -2.4255  -2.4253  -2.4229
    -0.8880  -0.8842  -0.8840  -0.8835  -0.8828  -0.8801  -0.7881  -0.7856
    -0.7841  -0.6694  -0.6677  -0.6649  -0.5894  -0.5821  -0.5813   0.1184
     0.2017   0.2043   0.2045   0.2050   0.2066   0.2100   1.0740   1.0792
     1.0805   1.4100   1.4123   1.4136   2.0201   2.0217   2.0222   2.0227
     2.0239   2.0251   2.0805   2.0821   2.0836   2.6309   2.6329   2.6334
     2.7347   2.7355   2.7364   2.7367   2.7398   2.7402   2.7894   2.7911
     2.7928   3.0972   3.0996   3.1008   3.1011   3.1017   3.1029   3.3649
     3.3654   3.3666   3.3779   3.3800   3.3812   3.7245   3.7276   3.7286
     3.7457   3.7489   3.7499   3.8319   3.8327   3.8344   4.0998   4.1051
     4.1070   4.1074   4.1077   4.1082   4.1459   4.1466   4.1487   4.4047
     4.4641   4.4644   4.4666   4.7072   4.7076   4.7102   4.7655   4.7714
     4.7718   4.9282   4.9313   5.2364   5.2368   5.2403   5.7164   5.7200
     6.9294   6.9320   6.9323   7.3691   7.3710   7.3731   7.5976   7.8555
     7.8575   7.8590   7.9839   7.9848   7.9877   8.1440   8.1452   8.1469
     8.1640   8.1649   8.1669   8.3922   8.3935   8.3970   8.3973   8.3974
     8.3989   8.4452

     the Fermi energy is     6.3216 ev

!    total energy              =    -730.88070815 Ry
     Harris-Foulkes estimate   =    -730.88070815 Ry
     estimated scf accuracy    <          1.8E-09 Ry

     The total energy is the sum of the following terms:

     one-electron contribution =     160.47577250 Ry
     hartree contribution      =      35.78606094 Ry
     xc contribution           =    -393.13387131 Ry
     ewald contribution        =    -534.00867027 Ry
     smearing contrib. (-TS)   =      -0.00000000 Ry

     convergence has been achieved in  12 iterations

     Forces acting on atoms (cartesian axes, Ry/au):

     atom    1 type  1   force =    -0.00473470    0.01138611    0.00025416
     atom    2 type  1   force =     0.00000770   -0.00003902    0.00000030
     atom    3 type  1   force =     0.00001606   -0.00001795   -0.00000007
     atom    4 type  1   force =    -0.00000153    0.00000335   -0.00000030
     atom    5 type  1   force =     0.00001666   -0.00003931   -0.00000077
     atom    6 type  1   force =    -0.00000202    0.00033603   -0.00000057
     atom    7 type  1   force =    -0.00013886    0.00000361    0.00000034
     atom    8 type  1   force =     0.00000815   -0.00001878   -0.00000042
     atom    9 type  1   force =    -0.00007426   -0.00013531   -0.00012831
     atom   10 type  1   force =     0.00000847   -0.00002885    0.00005706
     atom   11 type  1   force =    -0.00007551   -0.00013036    0.00012680
     atom   12 type  1   force =     0.00000760   -0.00002887   -0.00005591
     atom   13 type  1   force =    -0.00023477   -0.00019982    0.00019514
     atom   14 type  1   force =    -0.00000563   -0.00003401   -0.00005101
     atom   15 type  1   force =    -0.00023294   -0.00019872   -0.00019161
     atom   16 type  1   force =    -0.00000549   -0.00003431    0.00005033
     atom   17 type  1   force =    -0.00001020    0.00033925   -0.00001083
     atom   18 type  1   force =    -0.00001068    0.00034165    0.00001484
     atom   19 type  1   force =     0.00000697   -0.00000498   -0.00002873
     atom   20 type  1   force =     0.00000614   -0.00000543    0.00002899
     atom   21 type  1   force =     0.00014999    0.00040698   -0.00014657
     atom   22 type  1   force =     0.00014680    0.00040533    0.00014554
     atom   23 type  1   force =     0.00001988    0.00000098    0.00001547
     atom   24 type  1   force =     0.00002001    0.00000082   -0.00001557
     atom   25 type  1   force =    -0.00009186   -0.00009978    0.00004811
     atom   26 type  1   force =     0.00023305   -0.00023588   -0.00011319
     atom   27 type  1   force =     0.00022606   -0.00022901    0.00011127
     atom   28 type  1   force =    -0.00009059   -0.00009951   -0.00004531
     atom   29 type  1   force =     0.00006708   -0.00005423    0.00000370
     atom   30 type  1   force =    -0.00004054   -0.00000900   -0.00001046
     atom   31 type  1   force =    -0.00004030   -0.00000910    0.00000905
     atom   32 type  1   force =     0.00006674   -0.00005373   -0.00000378
     atom   33 type  1   force =    -0.00002674    0.00002248   -0.00001227
     atom   34 type  1   force =     0.00005463   -0.00001301   -0.00001063
     atom   35 type  1   force =    -0.00001123   -0.00017291   -0.00001174
     atom   36 type  1   force =    -0.00005254    0.00005482   -0.00001486
     atom   37 type  1   force =    -0.00000955   -0.00001262   -0.00001224
     atom   38 type  1   force =    -0.00004316    0.00001730   -0.00001127
     atom   39 type  1   force =    -0.00002869    0.00005102   -0.00002484
     atom   40 type  1   force =    -0.00069629   -0.00199833   -0.00108427
     atom   41 type  1   force =     0.00002413    0.00002982   -0.00004538
     atom   42 type  1   force =     0.00310741   -0.00361309   -0.00275599
     atom   43 type  1   force =     0.00002571   -0.00002704   -0.00002671
     atom   44 type  1   force =     0.00000964   -0.00000425   -0.00004121
     atom   45 type  1   force =     0.00002809   -0.00019094   -0.00002780
     atom   46 type  1   force =     0.00001902    0.00002619   -0.00003747
     atom   47 type  1   force =     0.00001673    0.00000444   -0.00003111
     atom   48 type  1   force =     0.00009489   -0.00002815   -0.00002544
     atom   49 type  1   force =     0.00000938   -0.00000479    0.00004104
     atom   50 type  1   force =     0.00002815   -0.00002874    0.00002962
     atom   51 type  1   force =     0.00288940   -0.00344023    0.00249362
     atom   52 type  1   force =     0.00002343    0.00002994    0.00004712
     atom   53 type  1   force =     0.00009574   -0.00002862    0.00002658
     atom   54 type  1   force =     0.00001588    0.00000503    0.00003047
     atom   55 type  1   force =     0.00001900    0.00002587    0.00003661
     atom   56 type  1   force =     0.00002798   -0.00019000    0.00002687
     atom   57 type  1   force =    -0.00005072    0.00005585    0.00001607
     atom   58 type  1   force =    -0.00001111   -0.00017384    0.00001174
     atom   59 type  1   force =     0.00005679   -0.00001146    0.00000991
     atom   60 type  1   force =    -0.00002756    0.00002227    0.00001320
     atom   61 type  1   force =    -0.00072532   -0.00198198    0.00108669
     atom   62 type  1   force =    -0.00002890    0.00005225    0.00002440
     atom   63 type  1   force =    -0.00004276    0.00001759    0.00001117
     atom   64 type  1   force =    -0.00000892   -0.00001304    0.00001044

     Total force =     0.014892     Total SCF correction =     0.000081

     Writing output data file pwscf.save/
 
     init_run     :     21.58s CPU     24.30s WALL (       1 calls)
     electrons    :    566.92s CPU    621.73s WALL (       1 calls)
     forces       :      9.71s CPU     10.02s WALL (       1 calls)

     Called by init_run:
     wfcinit      :     20.67s CPU     23.15s WALL (       1 calls)
     potinit      :      0.22s CPU      0.23s WALL (       1 calls)
     hinit0       :      0.20s CPU      0.22s WALL (       1 calls)

     Called by electrons:
     c_bands      :    478.70s CPU    522.41s WALL (      13 calls)
     sum_band     :     80.81s CPU     89.75s WALL (      13 calls)
     v_of_rho     :      2.16s CPU      2.42s WALL (      13 calls)
     newd         :      5.09s CPU      7.10s WALL (      13 calls)
     mix_rho      :      0.65s CPU      0.71s WALL (      13 calls)

     Called by c_bands:
     init_us_2    :      7.96s CPU      8.59s WALL (     112 calls)
     cegterg      :    434.43s CPU    475.37s WALL (      52 calls)

     Called by sum_band:
     sum_band:bec :      0.06s CPU      0.07s WALL (      52 calls)
     addusdens    :      5.78s CPU      7.60s WALL (      13 calls)

     Called by *egterg:
     h_psi        :    323.04s CPU    355.60s WALL (     231 calls)
     s_psi        :     59.51s CPU     62.55s WALL (     231 calls)
     g_psi        :      0.54s CPU      0.57s WALL (     175 calls)
     cdiaghg      :     10.66s CPU     11.27s WALL (     223 calls)

     Called by h_psi:
     h_psi:pot    :    322.10s CPU    353.55s WALL (     231 calls)
     h_psi:calbec :     61.59s CPU     65.61s WALL (     231 calls)
     vloc_psi     :    200.65s CPU    224.29s WALL (     231 calls)
     add_vuspsi   :     59.86s CPU     63.66s WALL (     231 calls)

     General routines
     calbec       :     90.48s CPU     95.99s WALL (     299 calls)
     fft          :      1.76s CPU      2.06s WALL (     156 calls)
     ffts         :      0.12s CPU      0.13s WALL (      13 calls)
     fftw         :    195.10s CPU    220.30s WALL (   49928 calls)
 
     Parallel routines
     fft_scatt_xy :     42.20s CPU     45.66s WALL (   50097 calls)
     fft_scatt_yz :     48.56s CPU     62.45s WALL (   50097 calls)
 
     PWSCF        :  9m58.77s CPU    10m56.92s WALL

 
   This run was terminated on:  15: 8:36  13Feb2020            

=------------------------------------------------------------------------------=
   JOB DONE.
=------------------------------------------------------------------------------=
