
     Program PWSCF v.6.3MaX starts on 14Feb2020 at 18:53:23 

     This program is part of the open-source Quantum ESPRESSO suite
     for quantum simulation of materials; please cite
         "P. Giannozzi et al., J. Phys.:Condens. Matter 21 395502 (2009);
         "P. Giannozzi et al., J. Phys.:Condens. Matter 29 465901 (2017);
          URL http://www.quantum-espresso.org", 
     in publications or presentations arising from this work. More details at
     http://www.quantum-espresso.org/quote

     Parallel version (MPI), running on     2 processors

     MPI processes distributed on     1 nodes
     R & G space division:  proc/nbgrp/npool/nimage =       2
     Waiting for input...
     Reading input from standard input

     Current dimensions of program PWSCF are:
     Max number of different atomic species (ntypx) = 10
     Max number of k-points (npk) =  40000
     Max angular momentum in pseudopotentials (lmaxx) =  3

     Subspace diagonalization in iterative solution of the eigenvalue problem:
     a serial algorithm will be used

 
     Parallelization info
     --------------------
     sticks:   dense  smooth     PW     G-vecs:    dense   smooth      PW
     Min        3392    3392    878               210674   210674   27756
     Max        3393    3393    879               210675   210675   27759
     Sum        6785    6785   1757               421349   421349   55515
 


     bravais-lattice index     =            0
     lattice parameter (alat)  =      20.6591  a.u.
     unit-cell volume          =    8817.2783 (a.u.)^3
     number of atoms/cell      =           64
     number of atomic types    =            1
     number of electrons       =       256.00
     number of Kohn-Sham states=          154
     kinetic-energy cutoff     =      50.0000  Ry
     charge density cutoff     =     200.0000  Ry
     convergence threshold     =      1.0E-08
     mixing beta               =       0.7000
     number of iterations used =            8  plain     mixing
     Exchange-correlation      = PBE ( 1  4  3  4 0 0)

     celldm(1)=  20.659106  celldm(2)=   0.000000  celldm(3)=   0.000000
     celldm(4)=   0.000000  celldm(5)=   0.000000  celldm(6)=   0.000000

     crystal axes: (cart. coord. in units of alat)
               a(1) = (   1.000000   0.000000   0.000000 )  
               a(2) = (   0.000000   1.000000   0.000000 )  
               a(3) = (   0.000000   0.000000   1.000000 )  

     reciprocal axes: (cart. coord. in units 2 pi/alat)
               b(1) = (  1.000000  0.000000  0.000000 )  
               b(2) = (  0.000000  1.000000  0.000000 )  
               b(3) = (  0.000000  0.000000  1.000000 )  


     PseudoPot. # 1 for Si read from file:
     ~/kedar/softwares/SSSP_precision_pseudos/Si.pbe-n-rrkjus_psl.1.0.0.UPF
     MD5 check sum: Not computed, couldn't open file
     Pseudo is Ultrasoft + core correction, Zval =  4.0
     Generated using "atomic" code by A. Dal Corso v.5.1
     Using radial grid of 1141 points,  6 beta functions with: 
                l(1) =   0
                l(2) =   0
                l(3) =   1
                l(4) =   1
                l(5) =   2
                l(6) =   2
     Q(r) pseudized with 0 coefficients 


     atomic species   valence    mass     pseudopotential
        Si             4.00    28.08550     Si( 1.00)

     No symmetry found



   Cartesian axes

     site n.     atom                  positions (alat units)
         1           Si  tau(   1) = (   0.4404043   0.4375000   0.4375000  )
         2           Si  tau(   2) = (   0.9375000   0.4375000   0.4375000  )
         3           Si  tau(   3) = (   0.4375000   0.9375000   0.4375000  )
         4           Si  tau(   4) = (   0.9375000   0.9375000   0.4375000  )
         5           Si  tau(   5) = (   0.4375000   0.4375000   0.9375000  )
         6           Si  tau(   6) = (   0.9375000   0.4375000   0.9375000  )
         7           Si  tau(   7) = (   0.4375000   0.9375000   0.9375000  )
         8           Si  tau(   8) = (   0.9375000   0.9375000   0.9375000  )
         9           Si  tau(   9) = (   0.4375000   0.1875000   0.1875000  )
        10           Si  tau(  10) = (   0.9375000   0.1875000   0.1875000  )
        11           Si  tau(  11) = (   0.4375000   0.6875000   0.1875000  )
        12           Si  tau(  12) = (   0.9375000   0.6875000   0.1875000  )
        13           Si  tau(  13) = (   0.4375000   0.1875000   0.6875000  )
        14           Si  tau(  14) = (   0.9375000   0.1875000   0.6875000  )
        15           Si  tau(  15) = (   0.4375000   0.6875000   0.6875000  )
        16           Si  tau(  16) = (   0.9375000   0.6875000   0.6875000  )
        17           Si  tau(  17) = (   0.1875000   0.4375000   0.1875000  )
        18           Si  tau(  18) = (   0.6875000   0.4375000   0.1875000  )
        19           Si  tau(  19) = (   0.1875000   0.9375000   0.1875000  )
        20           Si  tau(  20) = (   0.6875000   0.9375000   0.1875000  )
        21           Si  tau(  21) = (   0.1875000   0.4375000   0.6875000  )
        22           Si  tau(  22) = (   0.6875000   0.4375000   0.6875000  )
        23           Si  tau(  23) = (   0.1875000   0.9375000   0.6875000  )
        24           Si  tau(  24) = (   0.6875000   0.9375000   0.6875000  )
        25           Si  tau(  25) = (   0.1875000   0.1875000   0.4375000  )
        26           Si  tau(  26) = (   0.6875000   0.1875000   0.4375000  )
        27           Si  tau(  27) = (   0.1875000   0.6875000   0.4375000  )
        28           Si  tau(  28) = (   0.6875000   0.6875000   0.4375000  )
        29           Si  tau(  29) = (   0.1875000   0.1875000   0.9375000  )
        30           Si  tau(  30) = (   0.6875000   0.1875000   0.9375000  )
        31           Si  tau(  31) = (   0.1875000   0.6875000   0.9375000  )
        32           Si  tau(  32) = (   0.6875000   0.6875000   0.9375000  )
        33           Si  tau(  33) = (   0.0625000   0.0625000   0.0625000  )
        34           Si  tau(  34) = (   0.5625000   0.0625000   0.0625000  )
        35           Si  tau(  35) = (   0.0625000   0.5625000   0.0625000  )
        36           Si  tau(  36) = (   0.5625000   0.5625000   0.0625000  )
        37           Si  tau(  37) = (   0.0625000   0.0625000   0.5625000  )
        38           Si  tau(  38) = (   0.5625000   0.0625000   0.5625000  )
        39           Si  tau(  39) = (   0.0625000   0.5625000   0.5625000  )
        40           Si  tau(  40) = (   0.5625000   0.5625000   0.5625000  )
        41           Si  tau(  41) = (   0.0625000   0.3125000   0.3125000  )
        42           Si  tau(  42) = (   0.5625000   0.3125000   0.3125000  )
        43           Si  tau(  43) = (   0.0625000   0.8125000   0.3125000  )
        44           Si  tau(  44) = (   0.5625000   0.8125000   0.3125000  )
        45           Si  tau(  45) = (   0.0625000   0.3125000   0.8125000  )
        46           Si  tau(  46) = (   0.5625000   0.3125000   0.8125000  )
        47           Si  tau(  47) = (   0.0625000   0.8125000   0.8125000  )
        48           Si  tau(  48) = (   0.5625000   0.8125000   0.8125000  )
        49           Si  tau(  49) = (   0.3154043   0.0625000   0.3125000  )
        50           Si  tau(  50) = (   0.8125000   0.0625000   0.3125000  )
        51           Si  tau(  51) = (   0.3125000   0.5625000   0.3125000  )
        52           Si  tau(  52) = (   0.8125000   0.5625000   0.3125000  )
        53           Si  tau(  53) = (   0.3125000   0.0625000   0.8125000  )
        54           Si  tau(  54) = (   0.8125000   0.0625000   0.8125000  )
        55           Si  tau(  55) = (   0.3125000   0.5625000   0.8125000  )
        56           Si  tau(  56) = (   0.8125000   0.5625000   0.8125000  )
        57           Si  tau(  57) = (   0.3125000   0.3125000   0.0625000  )
        58           Si  tau(  58) = (   0.8125000   0.3125000   0.0625000  )
        59           Si  tau(  59) = (   0.3125000   0.8125000   0.0625000  )
        60           Si  tau(  60) = (   0.8125000   0.8125000   0.0625000  )
        61           Si  tau(  61) = (   0.3125000   0.3125000   0.5625000  )
        62           Si  tau(  62) = (   0.8125000   0.3125000   0.5625000  )
        63           Si  tau(  63) = (   0.3125000   0.8125000   0.5625000  )
        64           Si  tau(  64) = (   0.8125000   0.8125000   0.5625000  )

     number of k points=     4  gaussian smearing, width (Ry)=  0.0100
                       cart. coord. in units 2pi/alat
        k(    1) = (   0.2500000   0.2500000   0.2500000), wk =   0.5000000
        k(    2) = (  -0.2500000  -0.2500000   0.2500000), wk =   0.5000000
        k(    3) = (  -0.2500000   0.2500000  -0.2500000), wk =   0.5000000
        k(    4) = (   0.2500000  -0.2500000  -0.2500000), wk =   0.5000000

     Dense  grid:   421349 G-vectors     FFT dimensions: (  96,  96,  96)

     Estimated max dynamical RAM per process >       2.05 GB

     Estimated total dynamical RAM >       4.11 GB

     Check: negative/imaginary core charge=   -0.000001    0.000000

     Initial potential from superposition of free atoms

     starting charge  255.96421, renormalised to  256.00000
     Starting wfcs are  256 randomized atomic wfcs

     total cpu time spent up to now is       43.8 secs

     Self-consistent Calculation

     iteration #  1     ecut=    50.00 Ry     beta= 0.70
     Davidson diagonalization with overlap
     ethr =  1.00E-02,  avg # of iterations =  3.0

     Threshold (ethr) on eigenvalues was too large:
     Diagonalizing with lowered threshold

     Davidson diagonalization with overlap
     ethr =  6.78E-04,  avg # of iterations =  2.0

     total cpu time spent up to now is      258.6 secs

     total energy              =    -730.80290348 Ry
     Harris-Foulkes estimate   =    -731.20904941 Ry
     estimated scf accuracy    <       1.72060550 Ry

     iteration #  2     ecut=    50.00 Ry     beta= 0.70
     Davidson diagonalization with overlap
     ethr =  6.72E-04,  avg # of iterations =  1.0

     total cpu time spent up to now is      371.0 secs

     total energy              =    -730.86492545 Ry
     Harris-Foulkes estimate   =    -730.87089227 Ry
     estimated scf accuracy    <       0.08012334 Ry

     iteration #  3     ecut=    50.00 Ry     beta= 0.70
     Davidson diagonalization with overlap
     ethr =  3.13E-05,  avg # of iterations = 10.2

     total cpu time spent up to now is      570.6 secs

     total energy              =    -730.87932060 Ry
     Harris-Foulkes estimate   =    -730.88058677 Ry
     estimated scf accuracy    <       0.00276512 Ry

     iteration #  4     ecut=    50.00 Ry     beta= 0.70
     Davidson diagonalization with overlap
     ethr =  1.08E-06,  avg # of iterations =  5.0

     total cpu time spent up to now is      746.3 secs

     total energy              =    -730.87957022 Ry
     Harris-Foulkes estimate   =    -730.88068027 Ry
     estimated scf accuracy    <       0.00331671 Ry

     iteration #  5     ecut=    50.00 Ry     beta= 0.70
     Davidson diagonalization with overlap
     ethr =  1.08E-06,  avg # of iterations =  3.0

     total cpu time spent up to now is      880.8 secs

     total energy              =    -730.87998463 Ry
     Harris-Foulkes estimate   =    -730.88010074 Ry
     estimated scf accuracy    <       0.00034361 Ry

     iteration #  6     ecut=    50.00 Ry     beta= 0.70
     Davidson diagonalization with overlap
     ethr =  1.34E-07,  avg # of iterations =  3.0

     total cpu time spent up to now is     1049.2 secs

     total energy              =    -730.88001012 Ry
     Harris-Foulkes estimate   =    -730.88004137 Ry
     estimated scf accuracy    <       0.00007608 Ry

     iteration #  7     ecut=    50.00 Ry     beta= 0.70
     Davidson diagonalization with overlap
     ethr =  2.97E-08,  avg # of iterations =  2.0

     total cpu time spent up to now is     1220.4 secs

     total energy              =    -730.88002150 Ry
     Harris-Foulkes estimate   =    -730.88002188 Ry
     estimated scf accuracy    <       0.00000277 Ry

     iteration #  8     ecut=    50.00 Ry     beta= 0.70
     Davidson diagonalization with overlap
     ethr =  1.08E-09,  avg # of iterations =  3.0

     total cpu time spent up to now is     1409.8 secs

     total energy              =    -730.88002211 Ry
     Harris-Foulkes estimate   =    -730.88002252 Ry
     estimated scf accuracy    <       0.00000197 Ry

     iteration #  9     ecut=    50.00 Ry     beta= 0.70
     Davidson diagonalization with overlap
     ethr =  7.69E-10,  avg # of iterations =  2.0

     total cpu time spent up to now is     1551.5 secs

     total energy              =    -730.88002200 Ry
     Harris-Foulkes estimate   =    -730.88002228 Ry
     estimated scf accuracy    <       0.00000097 Ry

     iteration # 10     ecut=    50.00 Ry     beta= 0.70
     Davidson diagonalization with overlap
     ethr =  3.80E-10,  avg # of iterations =  1.0

     total cpu time spent up to now is     1665.9 secs

     total energy              =    -730.88002199 Ry
     Harris-Foulkes estimate   =    -730.88002206 Ry
     estimated scf accuracy    <       0.00000018 Ry

     iteration # 11     ecut=    50.00 Ry     beta= 0.70
     Davidson diagonalization with overlap
     ethr =  7.07E-11,  avg # of iterations =  3.0

     total cpu time spent up to now is     1806.8 secs

     total energy              =    -730.88002201 Ry
     Harris-Foulkes estimate   =    -730.88002202 Ry
     estimated scf accuracy    <       0.00000001 Ry

     iteration # 12     ecut=    50.00 Ry     beta= 0.70
     Davidson diagonalization with overlap
     ethr =  5.08E-12,  avg # of iterations =  3.0

     total cpu time spent up to now is     1951.4 secs

     End of self-consistent calculation

          k = 0.2500 0.2500 0.2500 ( 52563 PWs)   bands (ev):

    -5.6275  -5.1035  -5.0992  -5.0953  -4.6043  -4.6002  -4.5962  -4.1671
    -4.0717  -4.0673  -4.0630  -3.6613  -3.6542  -3.6520  -3.6506  -3.6486
    -3.6418  -3.4645  -3.4594  -3.4539  -2.9686  -2.9634  -2.9584  -2.5997
    -2.5942  -2.5894  -2.4352  -2.4286  -2.4269  -2.4252  -2.4235  -2.4166
    -0.8923  -0.8861  -0.8845  -0.8835  -0.8824  -0.8769  -0.7910  -0.7868
    -0.7818  -0.6713  -0.6678  -0.6641  -0.5871  -0.5821  -0.5769   0.1202
     0.1971   0.2024   0.2034   0.2057   0.2068   0.2122   1.0737   1.0791
     1.0844   1.4096   1.4119   1.4143   2.0185   2.0193   2.0220   2.0229
     2.0253   2.0262   2.0799   2.0817   2.0836   2.6308   2.6333   2.6356
     2.7300   2.7319   2.7349   2.7382   2.7400   2.7427   2.7876   2.7905
     2.7931   3.0960   3.0975   3.0992   3.1021   3.1040   3.1050   3.3626
     3.3648   3.3666   3.3770   3.3798   3.3813   3.7243   3.7278   3.7312
     3.7446   3.7500   3.7547   3.8300   3.8324   3.8349   4.0983   4.1040
     4.1071   4.1073   4.1105   4.1155   4.1440   4.1468   4.1496   4.4067
     4.4614   4.4640   4.4664   4.7047   4.7073   4.7101   4.7674   4.7719
     4.7771   4.9293   4.9294   5.2332   5.2365   5.2400   5.7171   5.7174
     6.9262   6.9303   6.9342   7.3667   7.3706   7.3743   7.5967   7.8531
     7.8565   7.8594   7.9813   7.9859   7.9907   8.1410   8.1451   8.1481
     8.1618   8.1651   8.1684   8.3900   8.3925   8.3966   8.3972   8.4010
     8.4031   8.4442

          k =-0.2500-0.2500 0.2500 ( 52563 PWs)   bands (ev):

    -5.6275  -5.1030  -5.0993  -5.0957  -4.6039  -4.6003  -4.5966  -4.1670
    -4.0710  -4.0674  -4.0638  -3.6600  -3.6547  -3.6522  -3.6505  -3.6481
    -3.6429  -3.4594  -3.4594  -3.4593  -2.9674  -2.9635  -2.9595  -2.5946
    -2.5944  -2.5941  -2.4344  -2.4289  -2.4272  -2.4249  -2.4231  -2.4177
    -0.8928  -0.8878  -0.8861  -0.8822  -0.8807  -0.8761  -0.7869  -0.7863
    -0.7861  -0.6682  -0.6680  -0.6674  -0.5896  -0.5821  -0.5743   0.1201
     0.1979   0.2001   0.2020   0.2071   0.2093   0.2111   1.0719   1.0792
     1.0862   1.4098   1.4120   1.4141   2.0184   2.0202   2.0220   2.0231
     2.0245   2.0264   2.0793   2.0814   2.0841   2.6316   2.6334   2.6348
     2.7322   2.7331   2.7355   2.7373   2.7399   2.7405   2.7868   2.7900
     2.7935   3.0946   3.0978   3.1005   3.1007   3.1034   3.1066   3.3627
     3.3648   3.3665   3.3775   3.3794   3.3811   3.7232   3.7279   3.7319
     3.7479   3.7496   3.7523   3.8295   3.8323   3.8356   4.1008   4.1043
     4.1064   4.1080   4.1094   4.1136   4.1434   4.1463   4.1503   4.4066
     4.4609   4.4644   4.4667   4.7041   4.7072   4.7106   4.7659   4.7719
     4.7790   4.9292   4.9293   5.2324   5.2365   5.2410   5.7171   5.7172
     6.9296   6.9303   6.9308   7.3649   7.3706   7.3761   7.5967   7.8517
     7.8564   7.8606   7.9858   7.9860   7.9862   8.1409   8.1450   8.1484
     8.1622   8.1649   8.1679   8.3903   8.3925   8.3954   8.3983   8.4008
     8.4032   8.4444

          k =-0.2500 0.2500-0.2500 ( 52563 PWs)   bands (ev):

    -5.6275  -5.1030  -5.0993  -5.0957  -4.6039  -4.6002  -4.5966  -4.1672
    -4.0709  -4.0673  -4.0637  -3.6589  -3.6537  -3.6519  -3.6509  -3.6490
    -3.6439  -3.4618  -3.4593  -3.4569  -2.9674  -2.9635  -2.9595  -2.5993
    -2.5944  -2.5894  -2.4335  -2.4282  -2.4261  -2.4260  -2.4238  -2.4184
    -0.8939  -0.8871  -0.8845  -0.8838  -0.8812  -0.8754  -0.7922  -0.7863
    -0.7804  -0.6708  -0.6682  -0.6650  -0.5895  -0.5822  -0.5743   0.1202
     0.1954   0.1999   0.2039   0.2052   0.2095   0.2137   1.0719   1.0791
     1.0862   1.4098   1.4120   1.4141   2.0178   2.0203   2.0216   2.0232
     2.0244   2.0266   2.0794   2.0818   2.0842   2.6306   2.6333   2.6358
     2.7304   2.7319   2.7358   2.7372   2.7401   2.7419   2.7873   2.7904
     2.7938   3.0946   3.0976   3.1000   3.1012   3.1037   3.1065   3.3641
     3.3648   3.3651   3.3774   3.3796   3.3810   3.7233   3.7281   3.7318
     3.7471   3.7496   3.7530   3.8294   3.8324   3.8354   4.1004   4.1042
     4.1068   4.1075   4.1098   4.1139   4.1433   4.1465   4.1502   4.4067
     4.4635   4.4638   4.4644   4.7040   4.7072   4.7106   4.7659   4.7719
     4.7790   4.9293   4.9294   5.2324   5.2365   5.2410   5.7171   5.7172
     6.9297   6.9303   6.9307   7.3649   7.3706   7.3761   7.5967   7.8517
     7.8565   7.8607   7.9828   7.9862   7.9892   8.1409   8.1449   8.1482
     8.1648   8.1649   8.1657   8.3897   8.3916   8.3968   8.3970   8.4017
     8.4036   8.4441

          k = 0.2500-0.2500-0.2500 ( 52563 PWs)   bands (ev):

    -5.6275  -5.1020  -5.0994  -5.0967  -4.6027  -4.6003  -4.5977  -4.1671
    -4.0697  -4.0674  -4.0649  -3.6602  -3.6537  -3.6531  -3.6497  -3.6489
    -3.6429  -3.4645  -3.4594  -3.4540  -2.9657  -2.9636  -2.9612  -2.5997
    -2.5942  -2.5894  -2.4337  -2.4291  -2.4281  -2.4240  -2.4230  -2.4180
    -0.8916  -0.8878  -0.8864  -0.8821  -0.8806  -0.8773  -0.7911  -0.7866
    -0.7818  -0.6714  -0.6679  -0.6641  -0.5895  -0.5822  -0.5744   0.1202
     0.1977   0.1993   0.2027   0.2064   0.2099   0.2116   1.0738   1.0791
     1.0843   1.4104   1.4120   1.4135   2.0182   2.0194   2.0210   2.0239
     2.0253   2.0264   2.0791   2.0816   2.0847   2.6309   2.6333   2.6356
     2.7298   2.7316   2.7360   2.7369   2.7406   2.7424   2.7875   2.7906
     2.7933   3.0961   3.0978   3.1000   3.1013   3.1036   3.1050   3.3627
     3.3649   3.3666   3.3781   3.3791   3.3807   3.7242   3.7280   3.7308
     3.7448   3.7498   3.7550   3.8299   3.8324   3.8350   4.0979   4.1048
     4.1068   4.1076   4.1096   4.1161   4.1437   4.1468   4.1497   4.4067
     4.4614   4.4640   4.4664   4.7044   4.7073   4.7103   4.7666   4.7719
     4.7780   4.9293   4.9293   5.2324   5.2366   5.2407   5.7171   5.7173
     6.9263   6.9303   6.9342   7.3655   7.3706   7.3754   7.5967   7.8524
     7.8564   7.8601   7.9813   7.9860   7.9907   8.1416   8.1448   8.1472
     8.1619   8.1654   8.1686   8.3912   8.3923   8.3954   8.3981   8.4011
     8.4023   8.4444

     the Fermi energy is     6.3204 ev

!    total energy              =    -730.88002201 Ry
     Harris-Foulkes estimate   =    -730.88002201 Ry
     estimated scf accuracy    <          2.8E-09 Ry

     The total energy is the sum of the following terms:

     one-electron contribution =     160.47263825 Ry
     hartree contribution      =      35.78745522 Ry
     xc contribution           =    -393.13399067 Ry
     ewald contribution        =    -534.00612481 Ry
     smearing contrib. (-TS)   =      -0.00000000 Ry

     convergence has been achieved in  12 iterations

     Forces acting on atoms (cartesian axes, Ry/au):

     atom    1 type  1   force =    -0.01611049   -0.00003592    0.00004640
     atom    2 type  1   force =     0.00005051   -0.00002508    0.00002810
     atom    3 type  1   force =     0.00401398   -0.00273677    0.00273554
     atom    4 type  1   force =    -0.00001673   -0.00003781    0.00003656
     atom    5 type  1   force =     0.00031455   -0.00002876    0.00002816
     atom    6 type  1   force =    -0.00002716   -0.00003120    0.00003102
     atom    7 type  1   force =    -0.00053450   -0.00004927    0.00003858
     atom    8 type  1   force =     0.00005258   -0.00002625    0.00002545
     atom    9 type  1   force =     0.00342838    0.00285017   -0.00262277
     atom   10 type  1   force =    -0.00000879    0.00004658   -0.00002865
     atom   11 type  1   force =    -0.00058292    0.00014841   -0.00015906
     atom   12 type  1   force =     0.00002808    0.00003424   -0.00003651
     atom   13 type  1   force =    -0.00058511   -0.00006104    0.00007356
     atom   14 type  1   force =     0.00003005    0.00001902   -0.00001477
     atom   15 type  1   force =    -0.00027156   -0.00008640   -0.00014259
     atom   16 type  1   force =    -0.00001839    0.00002071   -0.00004056
     atom   17 type  1   force =     0.00017363   -0.00007416    0.00027437
     atom   18 type  1   force =     0.00026610   -0.00008734   -0.00020102
     atom   19 type  1   force =     0.00388386    0.00250180    0.00243260
     atom   20 type  1   force =     0.00003366    0.00002654    0.00011202
     atom   21 type  1   force =     0.00048494    0.00013657   -0.00019566
     atom   22 type  1   force =     0.00021835    0.00014568    0.00026028
     atom   23 type  1   force =    -0.00001266    0.00006008    0.00011352
     atom   24 type  1   force =     0.00007210    0.00003829   -0.00004866
     atom   25 type  1   force =     0.00406940   -0.00228713   -0.00262106
     atom   26 type  1   force =     0.00022773   -0.00026601   -0.00015222
     atom   27 type  1   force =     0.00017407   -0.00026081    0.00005959
     atom   28 type  1   force =     0.00026621    0.00020206    0.00008438
     atom   29 type  1   force =    -0.00001270   -0.00012739   -0.00004584
     atom   30 type  1   force =     0.00007313    0.00004670   -0.00003570
     atom   31 type  1   force =     0.00029874    0.00004903   -0.00001898
     atom   32 type  1   force =     0.00002364   -0.00010662   -0.00002004
     atom   33 type  1   force =     0.00021094    0.00014151    0.00025490
     atom   34 type  1   force =     0.00049547    0.00014289   -0.00020222
     atom   35 type  1   force =     0.00006998    0.00003601   -0.00005193
     atom   36 type  1   force =    -0.00001361    0.00005905    0.00011387
     atom   37 type  1   force =     0.00025827   -0.00008413   -0.00019719
     atom   38 type  1   force =     0.00017853   -0.00007733    0.00027902
     atom   39 type  1   force =     0.00003268    0.00002727    0.00011425
     atom   40 type  1   force =     0.00400282    0.00272661    0.00266051
     atom   41 type  1   force =     0.00022037   -0.00026181   -0.00014766
     atom   42 type  1   force =     0.00419637   -0.00250476   -0.00285019
     atom   43 type  1   force =     0.00025703    0.00019939    0.00008373
     atom   44 type  1   force =     0.00017868   -0.00026800    0.00006403
     atom   45 type  1   force =     0.00007012    0.00004969   -0.00003518
     atom   46 type  1   force =    -0.00001479   -0.00012475   -0.00004567
     atom   47 type  1   force =     0.00002477   -0.00010770   -0.00002091
     atom   48 type  1   force =     0.00030238    0.00004761   -0.00001815
     atom   49 type  1   force =    -0.01611349   -0.00003756    0.00005178
     atom   50 type  1   force =     0.00005301   -0.00002659    0.00002849
     atom   51 type  1   force =     0.00389539   -0.00251026    0.00251093
     atom   52 type  1   force =    -0.00001689   -0.00003623    0.00003657
     atom   53 type  1   force =     0.00031019   -0.00002726    0.00002809
     atom   54 type  1   force =    -0.00002635   -0.00002971    0.00003185
     atom   55 type  1   force =    -0.00053280   -0.00005026    0.00003681
     atom   56 type  1   force =     0.00005439   -0.00003009    0.00002661
     atom   57 type  1   force =    -0.00058726   -0.00006477    0.00007751
     atom   58 type  1   force =     0.00003029    0.00002023   -0.00001814
     atom   59 type  1   force =    -0.00026995   -0.00008147   -0.00013808
     atom   60 type  1   force =    -0.00001848    0.00002062   -0.00003907
     atom   61 type  1   force =     0.00331216    0.00262021   -0.00239961
     atom   62 type  1   force =    -0.00000635    0.00004778   -0.00002715
     atom   63 type  1   force =    -0.00058689    0.00015074   -0.00016500
     atom   64 type  1   force =     0.00003034    0.00003512   -0.00003883

     Total force =     0.027419     Total SCF correction =     0.000098

     Writing output data file pwscf.save/
 
     init_run     :     40.33s CPU     43.38s WALL (       1 calls)
     electrons    :   1129.30s CPU   1907.58s WALL (       1 calls)
     forces       :     20.14s CPU     33.73s WALL (       1 calls)

     Called by init_run:
     wfcinit      :     38.31s CPU     40.94s WALL (       1 calls)
     potinit      :      0.41s CPU      0.46s WALL (       1 calls)
     hinit0       :      0.48s CPU      0.52s WALL (       1 calls)

     Called by electrons:
     c_bands      :    964.92s CPU   1623.39s WALL (      13 calls)
     sum_band     :    149.02s CPU    253.38s WALL (      13 calls)
     v_of_rho     :      3.67s CPU      6.28s WALL (      13 calls)
     newd         :     11.72s CPU     23.88s WALL (      13 calls)
     mix_rho      :      1.16s CPU      2.06s WALL (      13 calls)

     Called by c_bands:
     init_us_2    :     11.96s CPU     19.23s WALL (     112 calls)
     cegterg      :    871.23s CPU   1467.95s WALL (      52 calls)

     Called by sum_band:
     sum_band:bec :      0.07s CPU      0.07s WALL (      52 calls)
     addusdens    :     10.93s CPU     23.99s WALL (      13 calls)

     Called by *egterg:
     h_psi        :    637.94s CPU   1058.95s WALL (     221 calls)
     s_psi        :    125.61s CPU    204.26s WALL (     221 calls)
     g_psi        :      1.10s CPU      1.73s WALL (     165 calls)
     cdiaghg      :     11.06s CPU     19.09s WALL (     213 calls)

     Called by h_psi:
     h_psi:pot    :    635.98s CPU   1051.97s WALL (     221 calls)
     h_psi:calbec :    131.60s CPU    215.28s WALL (     221 calls)
     vloc_psi     :    378.28s CPU    631.24s WALL (     221 calls)
     add_vuspsi   :    126.09s CPU    205.45s WALL (     221 calls)

     General routines
     calbec       :    193.27s CPU    317.25s WALL (     289 calls)
     fft          :      4.09s CPU      6.61s WALL (     156 calls)
     ffts         :      0.19s CPU      0.28s WALL (      13 calls)
     fftw         :    383.09s CPU    664.47s WALL (   50966 calls)
 
     Parallel routines
     fft_scatt_xy :     69.66s CPU     90.24s WALL (   51135 calls)
     fft_scatt_yz :    129.08s CPU    323.85s WALL (   51135 calls)
 
     PWSCF        : 19m50.59s CPU    33m 6.30s WALL

 
   This run was terminated on:  19:26:29  14Feb2020            

=------------------------------------------------------------------------------=
   JOB DONE.
=------------------------------------------------------------------------------=
