
     Program PWSCF v.6.3MaX starts on 14Feb2020 at 14: 6:51 

     This program is part of the open-source Quantum ESPRESSO suite
     for quantum simulation of materials; please cite
         "P. Giannozzi et al., J. Phys.:Condens. Matter 21 395502 (2009);
         "P. Giannozzi et al., J. Phys.:Condens. Matter 29 465901 (2017);
          URL http://www.quantum-espresso.org", 
     in publications or presentations arising from this work. More details at
     http://www.quantum-espresso.org/quote

     Parallel version (MPI), running on     2 processors

     MPI processes distributed on     1 nodes
     R & G space division:  proc/nbgrp/npool/nimage =       2
     Waiting for input...
     Reading input from standard input

     Current dimensions of program PWSCF are:
     Max number of different atomic species (ntypx) = 10
     Max number of k-points (npk) =  40000
     Max angular momentum in pseudopotentials (lmaxx) =  3

     Subspace diagonalization in iterative solution of the eigenvalue problem:
     a serial algorithm will be used

 
     Parallelization info
     --------------------
     sticks:   dense  smooth     PW     G-vecs:    dense   smooth      PW
     Min        3392    3392    878               210674   210674   27756
     Max        3393    3393    879               210675   210675   27759
     Sum        6785    6785   1757               421349   421349   55515
 


     bravais-lattice index     =            0
     lattice parameter (alat)  =      20.6591  a.u.
     unit-cell volume          =    8817.2783 (a.u.)^3
     number of atoms/cell      =           64
     number of atomic types    =            1
     number of electrons       =       256.00
     number of Kohn-Sham states=          154
     kinetic-energy cutoff     =      50.0000  Ry
     charge density cutoff     =     200.0000  Ry
     convergence threshold     =      1.0E-08
     mixing beta               =       0.7000
     number of iterations used =            8  plain     mixing
     Exchange-correlation      = PBE ( 1  4  3  4 0 0)

     celldm(1)=  20.659106  celldm(2)=   0.000000  celldm(3)=   0.000000
     celldm(4)=   0.000000  celldm(5)=   0.000000  celldm(6)=   0.000000

     crystal axes: (cart. coord. in units of alat)
               a(1) = (   1.000000   0.000000   0.000000 )  
               a(2) = (   0.000000   1.000000   0.000000 )  
               a(3) = (   0.000000   0.000000   1.000000 )  

     reciprocal axes: (cart. coord. in units 2 pi/alat)
               b(1) = (  1.000000  0.000000  0.000000 )  
               b(2) = (  0.000000  1.000000  0.000000 )  
               b(3) = (  0.000000  0.000000  1.000000 )  


     PseudoPot. # 1 for Si read from file:
     ~/kedar/softwares/SSSP_precision_pseudos/Si.pbe-n-rrkjus_psl.1.0.0.UPF
     MD5 check sum: Not computed, couldn't open file
     Pseudo is Ultrasoft + core correction, Zval =  4.0
     Generated using "atomic" code by A. Dal Corso v.5.1
     Using radial grid of 1141 points,  6 beta functions with: 
                l(1) =   0
                l(2) =   0
                l(3) =   1
                l(4) =   1
                l(5) =   2
                l(6) =   2
     Q(r) pseudized with 0 coefficients 


     atomic species   valence    mass     pseudopotential
        Si             4.00    28.08550     Si( 1.00)

      2 Sym. Ops. (no inversion) found



   Cartesian axes

     site n.     atom                  positions (alat units)
         1           Si  tau(   1) = (   0.4404043   0.4375000   0.4375000  )
         2           Si  tau(   2) = (   0.9375000   0.4375000   0.4375000  )
         3           Si  tau(   3) = (   0.4375000   0.9375000   0.4375000  )
         4           Si  tau(   4) = (   0.9375000   0.9375000   0.4375000  )
         5           Si  tau(   5) = (   0.4375000   0.4375000   0.9375000  )
         6           Si  tau(   6) = (   0.9375000   0.4375000   0.9375000  )
         7           Si  tau(   7) = (   0.4375000   0.9375000   0.9375000  )
         8           Si  tau(   8) = (   0.9375000   0.9375000   0.9375000  )
         9           Si  tau(   9) = (   0.4375000   0.1875000   0.1875000  )
        10           Si  tau(  10) = (   0.9375000   0.1875000   0.1875000  )
        11           Si  tau(  11) = (   0.4375000   0.6875000   0.1875000  )
        12           Si  tau(  12) = (   0.9375000   0.6875000   0.1875000  )
        13           Si  tau(  13) = (   0.4375000   0.1875000   0.6875000  )
        14           Si  tau(  14) = (   0.9375000   0.1875000   0.6875000  )
        15           Si  tau(  15) = (   0.4375000   0.6875000   0.6875000  )
        16           Si  tau(  16) = (   0.9375000   0.6875000   0.6875000  )
        17           Si  tau(  17) = (   0.1875000   0.4375000   0.1875000  )
        18           Si  tau(  18) = (   0.6875000   0.4375000   0.1875000  )
        19           Si  tau(  19) = (   0.1875000   0.9375000   0.1875000  )
        20           Si  tau(  20) = (   0.6875000   0.9375000   0.1875000  )
        21           Si  tau(  21) = (   0.1875000   0.4375000   0.6875000  )
        22           Si  tau(  22) = (   0.6875000   0.4375000   0.6875000  )
        23           Si  tau(  23) = (   0.1875000   0.9375000   0.6875000  )
        24           Si  tau(  24) = (   0.6875000   0.9375000   0.6875000  )
        25           Si  tau(  25) = (   0.1875000   0.1875000   0.4375000  )
        26           Si  tau(  26) = (   0.6875000   0.1875000   0.4375000  )
        27           Si  tau(  27) = (   0.1875000   0.6875000   0.4375000  )
        28           Si  tau(  28) = (   0.6875000   0.6875000   0.4375000  )
        29           Si  tau(  29) = (   0.1875000   0.1875000   0.9375000  )
        30           Si  tau(  30) = (   0.6875000   0.1875000   0.9375000  )
        31           Si  tau(  31) = (   0.1875000   0.6875000   0.9375000  )
        32           Si  tau(  32) = (   0.6875000   0.6875000   0.9375000  )
        33           Si  tau(  33) = (   0.0654043   0.0625000   0.0625000  )
        34           Si  tau(  34) = (   0.5625000   0.0625000   0.0625000  )
        35           Si  tau(  35) = (   0.0625000   0.5625000   0.0625000  )
        36           Si  tau(  36) = (   0.5625000   0.5625000   0.0625000  )
        37           Si  tau(  37) = (   0.0625000   0.0625000   0.5625000  )
        38           Si  tau(  38) = (   0.5625000   0.0625000   0.5625000  )
        39           Si  tau(  39) = (   0.0625000   0.5625000   0.5625000  )
        40           Si  tau(  40) = (   0.5625000   0.5625000   0.5625000  )
        41           Si  tau(  41) = (   0.0625000   0.3125000   0.3125000  )
        42           Si  tau(  42) = (   0.5625000   0.3125000   0.3125000  )
        43           Si  tau(  43) = (   0.0625000   0.8125000   0.3125000  )
        44           Si  tau(  44) = (   0.5625000   0.8125000   0.3125000  )
        45           Si  tau(  45) = (   0.0625000   0.3125000   0.8125000  )
        46           Si  tau(  46) = (   0.5625000   0.3125000   0.8125000  )
        47           Si  tau(  47) = (   0.0625000   0.8125000   0.8125000  )
        48           Si  tau(  48) = (   0.5625000   0.8125000   0.8125000  )
        49           Si  tau(  49) = (   0.3125000   0.0625000   0.3125000  )
        50           Si  tau(  50) = (   0.8125000   0.0625000   0.3125000  )
        51           Si  tau(  51) = (   0.3125000   0.5625000   0.3125000  )
        52           Si  tau(  52) = (   0.8125000   0.5625000   0.3125000  )
        53           Si  tau(  53) = (   0.3125000   0.0625000   0.8125000  )
        54           Si  tau(  54) = (   0.8125000   0.0625000   0.8125000  )
        55           Si  tau(  55) = (   0.3125000   0.5625000   0.8125000  )
        56           Si  tau(  56) = (   0.8125000   0.5625000   0.8125000  )
        57           Si  tau(  57) = (   0.3125000   0.3125000   0.0625000  )
        58           Si  tau(  58) = (   0.8125000   0.3125000   0.0625000  )
        59           Si  tau(  59) = (   0.3125000   0.8125000   0.0625000  )
        60           Si  tau(  60) = (   0.8125000   0.8125000   0.0625000  )
        61           Si  tau(  61) = (   0.3125000   0.3125000   0.5625000  )
        62           Si  tau(  62) = (   0.8125000   0.3125000   0.5625000  )
        63           Si  tau(  63) = (   0.3125000   0.8125000   0.5625000  )
        64           Si  tau(  64) = (   0.8125000   0.8125000   0.5625000  )

     number of k points=     3  gaussian smearing, width (Ry)=  0.0100
                       cart. coord. in units 2pi/alat
        k(    1) = (   0.2500000   0.2500000   0.2500000), wk =   0.5000000
        k(    2) = (  -0.2500000   0.2500000  -0.2500000), wk =   1.0000000
        k(    3) = (   0.2500000  -0.2500000  -0.2500000), wk =   0.5000000

     Dense  grid:   421349 G-vectors     FFT dimensions: (  96,  96,  96)

     Estimated max dynamical RAM per process >       1.99 GB

     Estimated total dynamical RAM >       3.99 GB

     Check: negative/imaginary core charge=   -0.000001    0.000000

     Initial potential from superposition of free atoms

     starting charge  255.96421, renormalised to  256.00000
     Starting wfcs are  256 randomized atomic wfcs

     total cpu time spent up to now is       55.4 secs

     Self-consistent Calculation

     iteration #  1     ecut=    50.00 Ry     beta= 0.70
     Davidson diagonalization with overlap
     ethr =  1.00E-02,  avg # of iterations =  3.0

     Threshold (ethr) on eigenvalues was too large:
     Diagonalizing with lowered threshold

     Davidson diagonalization with overlap
     ethr =  6.78E-04,  avg # of iterations =  2.0

     total cpu time spent up to now is      262.5 secs

     total energy              =    -730.80251472 Ry
     Harris-Foulkes estimate   =    -731.20850862 Ry
     estimated scf accuracy    <       1.72015739 Ry

     iteration #  2     ecut=    50.00 Ry     beta= 0.70
     Davidson diagonalization with overlap
     ethr =  6.72E-04,  avg # of iterations =  1.0

     total cpu time spent up to now is      348.8 secs

     total energy              =    -730.86475140 Ry
     Harris-Foulkes estimate   =    -730.87074191 Ry
     estimated scf accuracy    <       0.08015892 Ry

     iteration #  3     ecut=    50.00 Ry     beta= 0.70
     Davidson diagonalization with overlap
     ethr =  3.13E-05,  avg # of iterations = 10.0

     total cpu time spent up to now is      499.4 secs

     total energy              =    -730.87932474 Ry
     Harris-Foulkes estimate   =    -730.88061510 Ry
     estimated scf accuracy    <       0.00280822 Ry

     iteration #  4     ecut=    50.00 Ry     beta= 0.70
     Davidson diagonalization with overlap
     ethr =  1.10E-06,  avg # of iterations =  4.3

     total cpu time spent up to now is      627.3 secs

     total energy              =    -730.87967621 Ry
     Harris-Foulkes estimate   =    -730.88061234 Ry
     estimated scf accuracy    <       0.00260917 Ry

     iteration #  5     ecut=    50.00 Ry     beta= 0.70
     Davidson diagonalization with overlap
     ethr =  1.02E-06,  avg # of iterations =  2.0

     total cpu time spent up to now is      729.4 secs

     total energy              =    -730.87999531 Ry
     Harris-Foulkes estimate   =    -730.88008227 Ry
     estimated scf accuracy    <       0.00022773 Ry

     iteration #  6     ecut=    50.00 Ry     beta= 0.70
     Davidson diagonalization with overlap
     ethr =  8.90E-08,  avg # of iterations =  3.0

     total cpu time spent up to now is      794.6 secs

     total energy              =    -730.88001251 Ry
     Harris-Foulkes estimate   =    -730.88003923 Ry
     estimated scf accuracy    <       0.00007503 Ry

     iteration #  7     ecut=    50.00 Ry     beta= 0.70
     Davidson diagonalization with overlap
     ethr =  2.93E-08,  avg # of iterations =  2.0

     total cpu time spent up to now is      840.7 secs

     total energy              =    -730.88002370 Ry
     Harris-Foulkes estimate   =    -730.88002403 Ry
     estimated scf accuracy    <       0.00000279 Ry

     iteration #  8     ecut=    50.00 Ry     beta= 0.70
     Davidson diagonalization with overlap
     ethr =  1.09E-09,  avg # of iterations =  3.0

     total cpu time spent up to now is      898.6 secs

     total energy              =    -730.88002434 Ry
     Harris-Foulkes estimate   =    -730.88002480 Ry
     estimated scf accuracy    <       0.00000195 Ry

     iteration #  9     ecut=    50.00 Ry     beta= 0.70
     Davidson diagonalization with overlap
     ethr =  7.63E-10,  avg # of iterations =  2.0

     total cpu time spent up to now is      940.1 secs

     total energy              =    -730.88002425 Ry
     Harris-Foulkes estimate   =    -730.88002447 Ry
     estimated scf accuracy    <       0.00000068 Ry

     iteration # 10     ecut=    50.00 Ry     beta= 0.70
     Davidson diagonalization with overlap
     ethr =  2.67E-10,  avg # of iterations =  2.0

     total cpu time spent up to now is      982.9 secs

     total energy              =    -730.88002426 Ry
     Harris-Foulkes estimate   =    -730.88002431 Ry
     estimated scf accuracy    <       0.00000013 Ry

     iteration # 11     ecut=    50.00 Ry     beta= 0.70
     Davidson diagonalization with overlap
     ethr =  4.99E-11,  avg # of iterations =  3.0

     total cpu time spent up to now is     1031.5 secs

     total energy              =    -730.88002427 Ry
     Harris-Foulkes estimate   =    -730.88002428 Ry
     estimated scf accuracy    <       0.00000002 Ry

     iteration # 12     ecut=    50.00 Ry     beta= 0.70
     Davidson diagonalization with overlap
     ethr =  7.74E-12,  avg # of iterations =  3.0

     total cpu time spent up to now is     1081.5 secs

     End of self-consistent calculation

          k = 0.2500 0.2500 0.2500 ( 52563 PWs)   bands (ev):

    -5.6275  -5.1040  -5.0992  -5.0948  -4.6046  -4.6001  -4.5960  -4.1670
    -4.0722  -4.0673  -4.0626  -3.6621  -3.6536  -3.6513  -3.6513  -3.6491
    -3.6411  -3.4617  -3.4594  -3.4569  -2.9682  -2.9634  -2.9587  -2.5994
    -2.5943  -2.5894  -2.4340  -2.4288  -2.4261  -2.4259  -2.4234  -2.4179
    -0.8894  -0.8876  -0.8845  -0.8840  -0.8806  -0.8796  -0.7922  -0.7865
    -0.7804  -0.6709  -0.6682  -0.6651  -0.5829  -0.5822  -0.5809   0.1201
     0.1973   0.2003   0.2045   0.2047   0.2086   0.2122   1.0778   1.0790
     1.0804   1.4103   1.4118   1.4138   2.0170   2.0215   2.0224   2.0226
     2.0234   2.0271   2.0815   2.0815   2.0825   2.6307   2.6334   2.6359
     2.7302   2.7347   2.7364   2.7365   2.7368   2.7423   2.7873   2.7913
     2.7930   3.0945   3.1001   3.1005   3.1006   3.1011   3.1067   3.3647
     3.3649   3.3652   3.3775   3.3790   3.3811   3.7245   3.7279   3.7298
     3.7473   3.7497   3.7535   3.8313   3.8324   3.8332   4.1028   4.1054
     4.1067   4.1072   4.1087   4.1121   4.1457   4.1472   4.1474   4.4063
     4.4636   4.4639   4.4646   4.7062   4.7076   4.7082   4.7714   4.7719
     4.7731   4.9293   4.9294   5.2357   5.2368   5.2375   5.7171   5.7172
     6.9297   6.9303   6.9307   7.3684   7.3705   7.3726   7.5967   7.8542
     7.8564   7.8584   7.9827   7.9862   7.9891   8.1410   8.1449   8.1482
     8.1646   8.1649   8.1656   8.3911   8.3941   8.3968   8.3970   8.3997
     8.4016   8.4444

          k =-0.2500 0.2500-0.2500 ( 52563 PWs)   bands (ev):

    -5.6275  -5.1035  -5.0992  -5.0952  -4.6042  -4.6002  -4.5963  -4.1670
    -4.0715  -4.0673  -4.0633  -3.6605  -3.6537  -3.6514  -3.6512  -3.6490
    -3.6425  -3.4646  -3.4595  -3.4541  -2.9670  -2.9635  -2.9600  -2.5995
    -2.5944  -2.5892  -2.4349  -2.4279  -2.4263  -2.4258  -2.4240  -2.4171
    -0.8921  -0.8864  -0.8841  -0.8839  -0.8824  -0.8765  -0.7911  -0.7864
    -0.7818  -0.6716  -0.6681  -0.6644  -0.5876  -0.5821  -0.5762   0.1201
     0.1969   0.2030   0.2041   0.2050   0.2064   0.2122   1.0741   1.0792
     1.0840   1.4104   1.4120   1.4134   2.0180   2.0196   2.0223   2.0229
     2.0251   2.0262   2.0802   2.0818   2.0834   2.6309   2.6333   2.6356
     2.7315   2.7342   2.7361   2.7366   2.7383   2.7403   2.7871   2.7909
     2.7939   3.0952   3.0981   3.0999   3.1013   3.1032   3.1060   3.3624
     3.3647   3.3664   3.3780   3.3798   3.3808   3.7238   3.7279   3.7311
     3.7449   3.7499   3.7550   3.8305   3.8323   3.8345   4.0980   4.1044
     4.1069   4.1074   4.1099   4.1162   4.1445   4.1464   4.1492   4.4066
     4.4615   4.4640   4.4665   4.7053   4.7072   4.7094   4.7679   4.7719
     4.7768   4.9288   4.9293   5.2340   5.2365   5.2397   5.7171   5.7172
     6.9263   6.9303   6.9342   7.3659   7.3706   7.3751   7.5967   7.8525
     7.8564   7.8601   7.9812   7.9859   7.9906   8.1408   8.1450   8.1483
     8.1619   8.1650   8.1685   8.3898   8.3927   8.3967   8.3970   8.4009
     8.4034   8.4444

          k = 0.2500-0.2500-0.2500 ( 52563 PWs)   bands (ev):

    -5.6275  -5.1026  -5.0992  -5.0963  -4.6036  -4.6001  -4.5970  -4.1671
    -4.0710  -4.0672  -4.0637  -3.6541  -3.6537  -3.6514  -3.6513  -3.6493
    -3.6489  -3.4594  -3.4593  -3.4589  -2.9689  -2.9634  -2.9581  -2.5949
    -2.5943  -2.5942  -2.4290  -2.4269  -2.4261  -2.4261  -2.4245  -2.4232
    -0.8879  -0.8858  -0.8846  -0.8840  -0.8833  -0.8804  -0.7866  -0.7864
    -0.7857  -0.6682  -0.6682  -0.6678  -0.5862  -0.5822  -0.5777   0.1203
     0.1998   0.2016   0.2045   0.2046   0.2078   0.2092   1.0762   1.0790
     1.0821   1.4095   1.4119   1.4144   2.0192   2.0206   2.0224   2.0226
     2.0244   2.0254   2.0791   2.0813   2.0843   2.6316   2.6333   2.6348
     2.7318   2.7318   2.7365   2.7366   2.7410   2.7413   2.7891   2.7899
     2.7912   3.0964   3.0995   3.1005   3.1006   3.1017   3.1048   3.3629
     3.3648   3.3666   3.3767   3.3796   3.3816   3.7259   3.7279   3.7287
     3.7481   3.7497   3.7523   3.8300   3.8325   3.8347   4.1029   4.1058
     4.1070   4.1073   4.1086   4.1117   4.1438   4.1469   4.1490   4.4063
     4.4608   4.4647   4.4666   4.7045   4.7075   4.7104   4.7681   4.7719
     4.7764   4.9291   4.9293   5.2328   5.2368   5.2403   5.7171   5.7173
     6.9296   6.9303   6.9308   7.3697   7.3706   7.3714   7.5967   7.8559
     7.8563   7.8564   7.9858   7.9861   7.9863   8.1425   8.1450   8.1471
     8.1623   8.1646   8.1679   8.3934   8.3960   8.3964   8.3978   8.3994
     8.4439   8.6572

     the Fermi energy is     6.3208 ev

!    total energy              =    -730.88002428 Ry
     Harris-Foulkes estimate   =    -730.88002428 Ry
     estimated scf accuracy    <          2.7E-09 Ry

     The total energy is the sum of the following terms:

     one-electron contribution =     160.47294207 Ry
     hartree contribution      =      35.78731874 Ry
     xc contribution           =    -393.13399738 Ry
     ewald contribution        =    -534.00628771 Ry
     smearing contrib. (-TS)   =      -0.00000000 Ry

     convergence has been achieved in  12 iterations

     Forces acting on atoms (cartesian axes, Ry/au):

     atom    1 type  1   force =    -0.01607434    0.00003075    0.00003075
     atom    2 type  1   force =     0.00027947    0.00002834    0.00002834
     atom    3 type  1   force =     0.00008438    0.00002915    0.00002629
     atom    4 type  1   force =    -0.00006377    0.00005050    0.00003573
     atom    5 type  1   force =     0.00008438    0.00002629    0.00002915
     atom    6 type  1   force =    -0.00006377    0.00003573    0.00005050
     atom    7 type  1   force =    -0.00048493    0.00003718    0.00003718
     atom    8 type  1   force =     0.00386449    0.00251070    0.00251070
     atom    9 type  1   force =    -0.00054085    0.00007740    0.00007740
     atom   10 type  1   force =     0.00384050   -0.00250175   -0.00250175
     atom   11 type  1   force =    -0.00049626    0.00008385   -0.00013935
     atom   12 type  1   force =    -0.00005425   -0.00002665   -0.00005959
     atom   13 type  1   force =    -0.00049626   -0.00013935    0.00008385
     atom   14 type  1   force =    -0.00005425   -0.00005959   -0.00002665
     atom   15 type  1   force =    -0.00054952   -0.00014493   -0.00014493
     atom   16 type  1   force =     0.00025497   -0.00003728   -0.00003728
     atom   17 type  1   force =     0.00017196   -0.00014811    0.00027396
     atom   18 type  1   force =     0.00026422   -0.00013917   -0.00020283
     atom   19 type  1   force =     0.00400226   -0.00274595    0.00265946
     atom   20 type  1   force =     0.00003435   -0.00004642    0.00011207
     atom   21 type  1   force =     0.00048884    0.00008118   -0.00019645
     atom   22 type  1   force =     0.00021824    0.00008317    0.00026059
     atom   23 type  1   force =    -0.00001519   -0.00003890    0.00011535
     atom   24 type  1   force =     0.00007060   -0.00001740   -0.00005000
     atom   25 type  1   force =     0.00017196    0.00027396   -0.00014811
     atom   26 type  1   force =     0.00026422   -0.00020283   -0.00013917
     atom   27 type  1   force =     0.00048884   -0.00019645    0.00008118
     atom   28 type  1   force =     0.00021824    0.00026059    0.00008317
     atom   29 type  1   force =     0.00400226    0.00265946   -0.00274595
     atom   30 type  1   force =     0.00003435    0.00011207   -0.00004642
     atom   31 type  1   force =    -0.00001519    0.00011535   -0.00003890
     atom   32 type  1   force =     0.00007060   -0.00005000   -0.00001740
     atom   33 type  1   force =    -0.01607540    0.00003019    0.00003019
     atom   34 type  1   force =     0.00028324    0.00002739    0.00002739
     atom   35 type  1   force =     0.00008190    0.00002744    0.00002550
     atom   36 type  1   force =    -0.00006464    0.00004941    0.00003828
     atom   37 type  1   force =     0.00008190    0.00002550    0.00002744
     atom   38 type  1   force =    -0.00006464    0.00003828    0.00004941
     atom   39 type  1   force =    -0.00048676    0.00003616    0.00003616
     atom   40 type  1   force =     0.00398456    0.00273602    0.00273602
     atom   41 type  1   force =    -0.00053559    0.00007272    0.00007272
     atom   42 type  1   force =     0.00396093   -0.00272659   -0.00272659
     atom   43 type  1   force =    -0.00050401    0.00008884   -0.00014184
     atom   44 type  1   force =    -0.00005698   -0.00002884   -0.00005866
     atom   45 type  1   force =    -0.00050401   -0.00014184    0.00008884
     atom   46 type  1   force =    -0.00005698   -0.00005866   -0.00002884
     atom   47 type  1   force =    -0.00054594   -0.00013975   -0.00013975
     atom   48 type  1   force =     0.00026137   -0.00003696   -0.00003696
     atom   49 type  1   force =     0.00018089   -0.00015055    0.00027934
     atom   50 type  1   force =     0.00025954   -0.00013703   -0.00019552
     atom   51 type  1   force =     0.00388315   -0.00251987    0.00243477
     atom   52 type  1   force =     0.00003362   -0.00004549    0.00011349
     atom   53 type  1   force =     0.00049247    0.00008660   -0.00020159
     atom   54 type  1   force =     0.00021057    0.00007941    0.00025599
     atom   55 type  1   force =    -0.00001227   -0.00004148    0.00011228
     atom   56 type  1   force =     0.00007228   -0.00002008   -0.00005045
     atom   57 type  1   force =     0.00018089    0.00027934   -0.00015055
     atom   58 type  1   force =     0.00025954   -0.00019552   -0.00013703
     atom   59 type  1   force =     0.00049247   -0.00020159    0.00008660
     atom   60 type  1   force =     0.00021057    0.00025599    0.00007941
     atom   61 type  1   force =     0.00388315    0.00243477   -0.00251987
     atom   62 type  1   force =     0.00003362    0.00011349   -0.00004549
     atom   63 type  1   force =    -0.00001227    0.00011228   -0.00004148
     atom   64 type  1   force =     0.00007228   -0.00005045   -0.00002008

     Total force =     0.027479     Total SCF correction =     0.000093

     Writing output data file pwscf.save/
 
     init_run     :     32.04s CPU     54.59s WALL (       1 calls)
     electrons    :    760.04s CPU   1026.05s WALL (       1 calls)
     forces       :     13.19s CPU     13.69s WALL (       1 calls)

     Called by init_run:
     wfcinit      :     30.46s CPU     51.01s WALL (       1 calls)
     potinit      :      0.28s CPU      0.57s WALL (       1 calls)
     hinit0       :      0.37s CPU      0.74s WALL (       1 calls)

     Called by electrons:
     c_bands      :    648.79s CPU    871.95s WALL (      13 calls)
     sum_band     :     99.20s CPU    133.86s WALL (      13 calls)
     v_of_rho     :      3.16s CPU      4.20s WALL (      13 calls)
     newd         :      9.09s CPU     17.32s WALL (      13 calls)
     mix_rho      :      0.72s CPU      0.94s WALL (      13 calls)

     Called by c_bands:
     init_us_2    :      7.95s CPU     10.46s WALL (      84 calls)
     cegterg      :    583.13s CPU    786.60s WALL (      39 calls)

     Called by sum_band:
     sum_band:bec :      0.05s CPU      0.05s WALL (      39 calls)
     addusdens    :      9.27s CPU     15.07s WALL (      13 calls)

     Called by *egterg:
     h_psi        :    423.01s CPU    578.79s WALL (     163 calls)
     s_psi        :     88.85s CPU    113.48s WALL (     163 calls)
     g_psi        :      0.74s CPU      1.03s WALL (     121 calls)
     cdiaghg      :      7.63s CPU     11.21s WALL (     157 calls)

     Called by h_psi:
     h_psi:pot    :    421.60s CPU    574.67s WALL (     163 calls)
     h_psi:calbec :     92.40s CPU    122.58s WALL (     163 calls)
     vloc_psi     :    240.19s CPU    335.65s WALL (     163 calls)
     add_vuspsi   :     89.01s CPU    116.44s WALL (     163 calls)

     General routines
     calbec       :    134.12s CPU    173.44s WALL (     214 calls)
     fft          :      2.20s CPU      2.99s WALL (     156 calls)
     ffts         :      0.16s CPU      0.20s WALL (      13 calls)
     fftw         :    240.09s CPU    342.77s WALL (   37978 calls)
 
     Parallel routines
     fft_scatt_xy :     46.38s CPU     54.72s WALL (   38147 calls)
     fft_scatt_yz :     73.25s CPU    141.45s WALL (   38147 calls)
 
     PWSCF        : 13m25.85s CPU    18m15.55s WALL

 
   This run was terminated on:  14:25: 7  14Feb2020            

=------------------------------------------------------------------------------=
   JOB DONE.
=------------------------------------------------------------------------------=
